LAMMPS data file via write_data, version 09 Jan 2020, timestep = 804

780 atoms
10 atom types
780 bonds
22 bond types
1200 angles
93 angle types
1560 dihedrals
2403 dihedral types
240 impropers
4096 improper types

-9.9800000000000000e-01 4.0613999999999997e+01 xlo xhi
-8.5899999999999999e-01 4.0994000000000000e+01 ylo yhi
-8.1299999999999994e-01 4.0536999999999999e+01 zlo zhi

Masses

1 12.01
2 1.008
3 1.008
4 1.008
5 12.01
6 12.01
7 16
8 16
9 32.06
10 12.01

Pair Coeffs # lj/charmm/coul/long

1 0.086 3.39967 0.086 3.39967
2 0.016 2.47135 0.016 2.47135
3 0.015 2.59964 0.015 2.59964
4 0.016 2.64953 0.016 2.64953
5 0.109 3.39967 0.109 3.39967
6 0.109 3.39967 0.109 3.39967
7 0.21 2.95992 0.21 2.95992
8 0.21 3.06647 0.21 3.06647
9 0.25 3.56359 0.25 3.56359
10 0.109 3.39967 0.109 3.39967

Bond Coeffs # harmonic

1 478.4 1.387
2 344.3 1.087
3 323.5 1.513
4 263.9 1.759
5 335.9 1.093
6 337.3 1.092
7 337.3 1.092
8 303.1 1.535
9 541.1 1.436
10 344.1 1.588
11 303.1 1.535
12 323.5 1.513
13 335.9 1.093
14 337.3 1.092
15 303.1 1.535
16 323.5 1.513
17 335.9 1.093
18 337.3 1.092
19 303.1 1.535
20 323.5 1.513
21 335.9 1.093
22 337.3 1.092

Angle Coeffs # harmonic

1 67.18 119.97
2 48.46 120.01
3 63.84 120.63
4 62.18 120.54
5 46.78 110.95
6 46.96 110.15
7 63.25 112.09
8 68.37 104.07
9 68.37 104.07
10 46.36 110.07
11 39.43 108.35
12 46.37 110.05
13 46.37 110.05
14 74.58 119.73
15 74.13 108.21
16 63.2 110.63
17 63.2 110.63
18 63.2 110.63
19 63.2 110.63
20 63.2 110.63
21 63.2 110.63
22 63.2 110.63
23 63.2 110.63
24 63.2 110.63
25 63.2 110.63
26 63.2 110.63
27 63.2 110.63
28 63.2 110.63
29 63.2 110.63
30 63.2 110.63
31 63.2 110.63
32 63.2 110.63
33 63.2 110.63
34 63.2 110.63
35 63.2 110.63
36 63.2 110.63
37 63.2 110.63
38 63.2 110.63
39 63.2 110.63
40 63.2 110.63
41 63.2 110.63
42 63.2 110.63
43 63.2 112.09
44 63.2 112.09
45 63.2 112.09
46 63.2 112.09
47 63.2 112.09
48 63.2 112.09
49 63.2 112.09
50 63.2 112.09
51 63.2 112.09
52 46.4 110.07
53 46.4 110.07
54 46.4 110.07
55 46.4 110.07
56 46.4 110.07
57 46.4 110.07
58 46.4 110.07
59 46.4 110.07
60 46.4 110.07
61 46.4 110.05
62 46.4 110.05
63 46.4 110.05
64 46.4 110.05
65 46.4 110.05
66 46.4 110.05
67 46.4 110.05
68 46.4 110.05
69 46.4 110.05
70 63.7 112.26
71 63.7 112.26
72 63.7 112.26
73 46.8 110.95
74 46.8 110.95
75 47 110.15
76 47 110.15
77 39.2 109.55
78 39.2 109.55
79 39.2 109.55
80 39.4 108.35
81 39.4 108.35
82 62.4 116.8
83 62.4 116.8
84 62.4 116.8
85 62.4 116.8
86 62.4 116.8
87 62.4 116.8
88 62.4 116.8
89 62.4 116.8
90 62.4 116.8
91 63.8 120.63
92 63.8 120.63
93 63.8 120.63

Dihedral Coeffs # fourier

1 1 3.625 2 180
2 1 3.625 2 180
3 1 3.625 2 180
4 1 3.625 2 180
5 1 0 2 0
6 1 0 2 0
7 1 0 2 0
8 1 1.3 2 180
9 1 1.3 2 180
10 1 3.625 2 180
11 1 3.625 2 180
12 1 3.625 2 180
13 1 0.155556 3 0
14 1 0.155556 3 0
15 1 0.155556 3 0
16 1 0.155556 3 0
17 1 0.155556 3 0
18 1 0.155556 3 0
19 1 0.155556 3 0
20 1 0.155556 3 0
21 1 0.155556 3 0
22 1 0.155556 3 0
23 1 0.155556 3 0
24 1 0.155556 3 0
25 1 0.155556 3 0
26 1 0.155556 3 0
27 1 0.155556 3 0
28 1 0.155556 3 0
29 1 0.155556 3 0
30 1 0.155556 3 0
31 1 0.155556 3 0
32 1 0.155556 3 0
33 1 0.155556 3 0
34 1 0.155556 3 0
35 1 0.155556 3 0
36 1 0.155556 3 0
37 1 0.155556 3 0
38 1 0.155556 3 0
39 1 0.155556 3 0
40 1 0.155556 3 0
41 1 0.155556 3 0
42 1 0.155556 3 0
43 1 0.155556 3 0
44 1 0.155556 3 0
45 1 0.155556 3 0
46 1 0.155556 3 0
47 1 0.155556 3 0
48 1 0.155556 3 0
49 1 0.155556 3 0
50 1 0.155556 3 0
51 1 0.155556 3 0
52 1 0.155556 3 0
53 1 0.155556 3 0
54 1 0.155556 3 0
55 1 0.155556 3 0
56 1 0.155556 3 0
57 1 0.155556 3 0
58 1 0.155556 3 0
59 1 0.155556 3 0
60 1 0.155556 3 0
61 1 0.155556 3 0
62 1 0.155556 3 0
63 1 0.155556 3 0
64 1 0.155556 3 0
65 1 0.155556 3 0
66 1 0.155556 3 0
67 1 0.155556 3 0
68 1 0.155556 3 0
69 1 0.155556 3 0
70 1 0.155556 3 0
71 1 0.155556 3 0
72 1 0.155556 3 0
73 1 0.155556 3 0
74 1 0.155556 3 0
75 1 0.155556 3 0
76 1 0.155556 3 0
77 1 0.155556 3 0
78 1 0.155556 3 0
79 1 0.155556 3 0
80 1 0.155556 3 0
81 1 0.155556 3 0
82 1 0.155556 3 0
83 1 0.155556 3 0
84 1 0.155556 3 0
85 1 0.155556 3 0
86 1 0.155556 3 0
87 1 0.155556 3 0
88 1 0.155556 3 0
89 1 0.155556 3 0
90 1 0.155556 3 0
91 1 0.155556 3 0
92 1 0.155556 3 0
93 1 0.155556 3 0
94 1 0.155556 3 0
95 1 0.155556 3 0
96 1 0.155556 3 0
97 1 0.155556 3 0
98 1 0.155556 3 0
99 1 0.155556 3 0
100 1 0.155556 3 0
101 1 0.155556 3 0
102 1 0.155556 3 0
103 1 0.155556 3 0
104 1 0.155556 3 0
105 1 0.155556 3 0
106 1 0.155556 3 0
107 1 0.155556 3 0
108 1 0.155556 3 0
109 1 0.155556 3 0
110 1 0.155556 3 0
111 1 0.155556 3 0
112 1 0.155556 3 0
113 1 0.155556 3 0
114 1 0.155556 3 0
115 1 0.155556 3 0
116 1 0.155556 3 0
117 1 0.155556 3 0
118 1 0.155556 3 0
119 1 0.155556 3 0
120 1 0.155556 3 0
121 1 0.155556 3 0
122 1 0.155556 3 0
123 1 0.155556 3 0
124 1 0.155556 3 0
125 1 0.155556 3 0
126 1 0.155556 3 0
127 1 0.155556 3 0
128 1 0.155556 3 0
129 1 0.155556 3 0
130 1 0.155556 3 0
131 1 0.155556 3 0
132 1 0.155556 3 0
133 1 0.155556 3 0
134 1 0.155556 3 0
135 1 0.155556 3 0
136 1 0.155556 3 0
137 1 0.155556 3 0
138 1 0.155556 3 0
139 1 0.155556 3 0
140 1 0.155556 3 0
141 1 0.155556 3 0
142 1 0.155556 3 0
143 1 0.155556 3 0
144 1 0.155556 3 0
145 1 0.155556 3 0
146 1 0.155556 3 0
147 1 0.155556 3 0
148 1 0.155556 3 0
149 1 0.155556 3 0
150 1 0.155556 3 0
151 1 0.155556 3 0
152 1 0.155556 3 0
153 1 0.155556 3 0
154 1 0.155556 3 0
155 1 0.155556 3 0
156 1 0.155556 3 0
157 1 0.155556 3 0
158 1 0.155556 3 0
159 1 0.155556 3 0
160 1 0.155556 3 0
161 1 0.155556 3 0
162 1 0.155556 3 0
163 1 0.155556 3 0
164 1 0.155556 3 0
165 1 0.155556 3 0
166 1 0.155556 3 0
167 1 0.155556 3 0
168 1 0.155556 3 0
169 1 0.155556 3 0
170 1 0.155556 3 0
171 1 0.155556 3 0
172 1 0.155556 3 0
173 1 0.155556 3 0
174 1 0.155556 3 0
175 1 0.155556 3 0
176 1 0.155556 3 0
177 1 0.155556 3 0
178 1 0.155556 3 0
179 1 0.155556 3 0
180 1 0.155556 3 0
181 1 0.155556 3 0
182 1 0.155556 3 0
183 1 0.155556 3 0
184 1 0.155556 3 0
185 1 0.155556 3 0
186 1 0.155556 3 0
187 1 0.155556 3 0
188 1 0.155556 3 0
189 1 0.155556 3 0
190 1 0.155556 3 0
191 1 0.155556 3 0
192 1 0.155556 3 0
193 1 0.155556 3 0
194 1 0.155556 3 0
195 1 0.155556 3 0
196 1 0.155556 3 0
197 1 0.155556 3 0
198 1 0.155556 3 0
199 1 0.155556 3 0
200 1 0.155556 3 0
201 1 0.155556 3 0
202 1 0.155556 3 0
203 1 0.155556 3 0
204 1 0.155556 3 0
205 1 0.155556 3 0
206 1 0.155556 3 0
207 1 0.155556 3 0
208 1 0.155556 3 0
209 1 0.155556 3 0
210 1 0.155556 3 0
211 1 0.155556 3 0
212 1 0.155556 3 0
213 1 0.155556 3 0
214 1 0.155556 3 0
215 1 0.155556 3 0
216 1 0.155556 3 0
217 1 0.155556 3 0
218 1 0.155556 3 0
219 1 0.155556 3 0
220 1 0.155556 3 0
221 1 0.155556 3 0
222 1 0.155556 3 0
223 1 0.155556 3 0
224 1 0.155556 3 0
225 1 0.155556 3 0
226 1 0.155556 3 0
227 1 0.155556 3 0
228 1 0.155556 3 0
229 1 0.155556 3 0
230 1 0.155556 3 0
231 1 0.155556 3 0
232 1 0.155556 3 0
233 1 0.155556 3 0
234 1 0.155556 3 0
235 1 0.155556 3 0
236 1 0.155556 3 0
237 1 0.155556 3 0
238 1 0.155556 3 0
239 1 0.155556 3 0
240 1 0.155556 3 0
241 1 0.155556 3 0
242 1 0.155556 3 0
243 1 0.155556 3 0
244 1 0.155556 3 0
245 1 0.155556 3 0
246 1 0.155556 3 0
247 1 0.155556 3 0
248 1 0.155556 3 0
249 1 0.155556 3 0
250 1 0.155556 3 0
251 1 0.155556 3 0
252 1 0.155556 3 0
253 1 0.155556 3 0
254 1 0.155556 3 0
255 1 0.155556 3 0
256 1 0.155556 3 0
257 1 0.155556 3 0
258 1 0.155556 3 0
259 1 0.155556 3 0
260 1 0.155556 3 0
261 1 0.155556 3 0
262 1 0.155556 3 0
263 1 0.155556 3 0
264 1 0.155556 3 0
265 1 0.155556 3 0
266 1 0.155556 3 0
267 1 0.155556 3 0
268 1 0.155556 3 0
269 1 0.155556 3 0
270 1 0.155556 3 0
271 1 0.155556 3 0
272 1 0.155556 3 0
273 1 0.155556 3 0
274 1 0.155556 3 0
275 1 0.155556 3 0
276 1 0.155556 3 0
277 1 0.155556 3 0
278 1 0.155556 3 0
279 1 0.155556 3 0
280 1 0.155556 3 0
281 1 0.155556 3 0
282 1 0.155556 3 0
283 1 0.155556 3 0
284 1 0.155556 3 0
285 1 0.155556 3 0
286 1 0.155556 3 0
287 1 0.155556 3 0
288 1 0.155556 3 0
289 1 0.155556 3 0
290 1 0.155556 3 0
291 1 0.155556 3 0
292 1 0.155556 3 0
293 1 0.155556 3 0
294 1 0.155556 3 0
295 1 0.155556 3 0
296 1 0.155556 3 0
297 1 0.155556 3 0
298 1 0.155556 3 0
299 1 0.155556 3 0
300 1 0.155556 3 0
301 1 0.155556 3 0
302 1 0.155556 3 0
303 1 0.155556 3 0
304 1 0.155556 3 0
305 1 0.155556 3 0
306 1 0.155556 3 0
307 1 0.155556 3 0
308 1 0.155556 3 0
309 1 0.155556 3 0
310 1 0.155556 3 0
311 1 0.155556 3 0
312 1 0.155556 3 0
313 1 0.155556 3 0
314 1 0.155556 3 0
315 1 0.155556 3 0
316 1 0.155556 3 0
317 1 0.155556 3 0
318 1 0.155556 3 0
319 1 0.155556 3 0
320 1 0.155556 3 0
321 1 0.155556 3 0
322 1 0.155556 3 0
323 1 0.155556 3 0
324 1 0.155556 3 0
325 1 0.155556 3 0
326 1 0.155556 3 0
327 1 0.155556 3 0
328 1 0.155556 3 0
329 1 0.155556 3 0
330 1 0.155556 3 0
331 1 0.155556 3 0
332 1 0.155556 3 0
333 1 0.155556 3 0
334 1 0.155556 3 0
335 1 0.155556 3 0
336 1 0.155556 3 0
337 1 0.155556 3 0
338 1 0.155556 3 0
339 1 0.155556 3 0
340 1 0.155556 3 0
341 1 0.155556 3 0
342 1 0.155556 3 0
343 1 0.155556 3 0
344 1 0.155556 3 0
345 1 0.155556 3 0
346 1 0.155556 3 0
347 1 0.155556 3 0
348 1 0.155556 3 0
349 1 0.155556 3 0
350 1 0.155556 3 0
351 1 0.155556 3 0
352 1 0.155556 3 0
353 1 0.155556 3 0
354 1 0.155556 3 0
355 1 0.155556 3 0
356 1 0.155556 3 0
357 1 0.155556 3 0
358 1 0.155556 3 0
359 1 0.155556 3 0
360 1 0.155556 3 0
361 1 0.155556 3 0
362 1 0.155556 3 0
363 1 0.155556 3 0
364 1 0.155556 3 0
365 1 0.155556 3 0
366 1 0.155556 3 0
367 1 0.155556 3 0
368 1 0.155556 3 0
369 1 0.155556 3 0
370 1 0.155556 3 0
371 1 0.155556 3 0
372 1 0.155556 3 0
373 1 0.155556 3 0
374 1 0.155556 3 0
375 1 0.155556 3 0
376 1 0.155556 3 0
377 1 0.155556 3 0
378 1 0.155556 3 0
379 1 0.155556 3 0
380 1 0.155556 3 0
381 1 0.155556 3 0
382 1 0.155556 3 0
383 1 0.155556 3 0
384 1 0.155556 3 0
385 1 0.155556 3 0
386 1 0.155556 3 0
387 1 0.155556 3 0
388 1 0.155556 3 0
389 1 0.155556 3 0
390 1 0.155556 3 0
391 1 0.155556 3 0
392 1 0.155556 3 0
393 1 0.155556 3 0
394 1 0.155556 3 0
395 1 0.155556 3 0
396 1 0.155556 3 0
397 1 0.155556 3 0
398 1 0.155556 3 0
399 1 0.155556 3 0
400 1 0.155556 3 0
401 1 0.155556 3 0
402 1 0.155556 3 0
403 1 0.155556 3 0
404 1 0.155556 3 0
405 1 0.155556 3 0
406 1 0.155556 3 0
407 1 0.155556 3 0
408 1 0.155556 3 0
409 1 0.155556 3 0
410 1 0.155556 3 0
411 1 0.155556 3 0
412 1 0.155556 3 0
413 1 0.155556 3 0
414 1 0.155556 3 0
415 1 0.155556 3 0
416 1 0.155556 3 0
417 1 0.155556 3 0
418 1 0.155556 3 0
419 1 0.155556 3 0
420 1 0.155556 3 0
421 1 0.155556 3 0
422 1 0.155556 3 0
423 1 0.155556 3 0
424 1 0.155556 3 0
425 1 0.155556 3 0
426 1 0.155556 3 0
427 1 0.155556 3 0
428 1 0.155556 3 0
429 1 0.155556 3 0
430 1 0.155556 3 0
431 1 0.155556 3 0
432 1 0.155556 3 0
433 1 0.155556 3 0
434 1 0.155556 3 0
435 1 0.155556 3 0
436 1 0.155556 3 0
437 1 0.155556 3 0
438 1 0.155556 3 0
439 1 0.155556 3 0
440 1 0.155556 3 0
441 1 0.155556 3 0
442 1 0.155556 3 0
443 1 0.155556 3 0
444 1 0.155556 3 0
445 1 0.155556 3 0
446 1 0.155556 3 0
447 1 0.155556 3 0
448 1 0.155556 3 0
449 1 0.155556 3 0
450 1 0.155556 3 0
451 1 0.155556 3 0
452 1 0.155556 3 0
453 1 0.155556 3 0
454 1 0.155556 3 0
455 1 0.155556 3 0
456 1 0.155556 3 0
457 1 0.155556 3 0
458 1 0.155556 3 0
459 1 0.155556 3 0
460 1 0.155556 3 0
461 1 0.155556 3 0
462 1 0.155556 3 0
463 1 0.155556 3 0
464 1 0.155556 3 0
465 1 0.155556 3 0
466 1 0.155556 3 0
467 1 0.155556 3 0
468 1 0.155556 3 0
469 1 0.155556 3 0
470 1 0.155556 3 0
471 1 0.155556 3 0
472 1 0.155556 3 0
473 1 0.155556 3 0
474 1 0.155556 3 0
475 1 0.155556 3 0
476 1 0.155556 3 0
477 1 0.155556 3 0
478 1 0.155556 3 0
479 1 0.155556 3 0
480 1 0.155556 3 0
481 1 0.155556 3 0
482 1 0.155556 3 0
483 1 0.155556 3 0
484 1 0.155556 3 0
485 1 0.155556 3 0
486 1 0.155556 3 0
487 1 0.155556 3 0
488 1 0.155556 3 0
489 1 0.155556 3 0
490 1 0.155556 3 0
491 1 0.155556 3 0
492 1 0.155556 3 0
493 1 0.155556 3 0
494 1 0.155556 3 0
495 1 0.155556 3 0
496 1 0.155556 3 0
497 1 0.155556 3 0
498 1 0.155556 3 0
499 1 0.155556 3 0
500 1 0.155556 3 0
501 1 0.155556 3 0
502 1 0.155556 3 0
503 1 0.155556 3 0
504 1 0.155556 3 0
505 1 0.155556 3 0
506 1 0.155556 3 0
507 1 0.155556 3 0
508 1 0.155556 3 0
509 1 0.155556 3 0
510 1 0.155556 3 0
511 1 0.155556 3 0
512 1 0.155556 3 0
513 1 0.155556 3 0
514 1 0.155556 3 0
515 1 0.155556 3 0
516 1 0.155556 3 0
517 1 0.155556 3 0
518 1 0.155556 3 0
519 1 0.155556 3 0
520 1 0.155556 3 0
521 1 0.155556 3 0
522 1 0.155556 3 0
523 1 0.155556 3 0
524 1 0.155556 3 0
525 1 0.155556 3 0
526 1 0.155556 3 0
527 1 0.155556 3 0
528 1 0.155556 3 0
529 1 0.155556 3 0
530 1 0.155556 3 0
531 1 0.155556 3 0
532 1 0.155556 3 0
533 1 0.155556 3 0
534 1 0.155556 3 0
535 1 0.155556 3 0
536 1 0.155556 3 0
537 1 0.155556 3 0
538 1 0.155556 3 0
539 1 0.155556 3 0
540 1 0.155556 3 0
541 1 0.155556 3 0
542 1 0.155556 3 0
543 1 0.155556 3 0
544 1 0.155556 3 0
545 1 0.155556 3 0
546 1 0.155556 3 0
547 1 0.155556 3 0
548 1 0.155556 3 0
549 1 0.155556 3 0
550 1 0.155556 3 0
551 1 0.155556 3 0
552 1 0.155556 3 0
553 1 0.155556 3 0
554 1 0.155556 3 0
555 1 0.155556 3 0
556 1 0.155556 3 0
557 1 0.155556 3 0
558 1 0.155556 3 0
559 1 0.155556 3 0
560 1 0.155556 3 0
561 1 0.155556 3 0
562 1 0.155556 3 0
563 1 0.155556 3 0
564 1 0.155556 3 0
565 1 0.155556 3 0
566 1 0.155556 3 0
567 1 0.155556 3 0
568 1 0.155556 3 0
569 1 0.155556 3 0
570 1 0.155556 3 0
571 1 0.155556 3 0
572 1 0.155556 3 0
573 1 0.155556 3 0
574 1 0.155556 3 0
575 1 0.155556 3 0
576 1 0.155556 3 0
577 1 0.155556 3 0
578 1 0.155556 3 0
579 1 0.155556 3 0
580 1 0.155556 3 0
581 1 0.155556 3 0
582 1 0.155556 3 0
583 1 0.155556 3 0
584 1 0.155556 3 0
585 1 0.155556 3 0
586 1 0.155556 3 0
587 1 0.155556 3 0
588 1 0.155556 3 0
589 1 0.155556 3 0
590 1 0.155556 3 0
591 1 0.155556 3 0
592 1 0.155556 3 0
593 1 0.155556 3 0
594 1 0.155556 3 0
595 1 0.155556 3 0
596 1 0.155556 3 0
597 1 0.155556 3 0
598 1 0.155556 3 0
599 1 0.155556 3 0
600 1 0.155556 3 0
601 1 0.155556 3 0
602 1 0.155556 3 0
603 1 0.155556 3 0
604 1 0.155556 3 0
605 1 0.155556 3 0
606 1 0.155556 3 0
607 1 0.155556 3 0
608 1 0.155556 3 0
609 1 0.155556 3 0
610 1 0.155556 3 0
611 1 0.155556 3 0
612 1 0.155556 3 0
613 1 0.155556 3 0
614 1 0.155556 3 0
615 1 0.155556 3 0
616 1 0.155556 3 0
617 1 0.155556 3 0
618 1 0.155556 3 0
619 1 0.155556 3 0
620 1 0.155556 3 0
621 1 0.155556 3 0
622 1 0.155556 3 0
623 1 0.155556 3 0
624 1 0.155556 3 0
625 1 0.155556 3 0
626 1 0.155556 3 0
627 1 0.155556 3 0
628 1 0.155556 3 0
629 1 0.155556 3 0
630 1 0.155556 3 0
631 1 0.155556 3 0
632 1 0.155556 3 0
633 1 0.155556 3 0
634 1 0.155556 3 0
635 1 0.155556 3 0
636 1 0.155556 3 0
637 1 0.155556 3 0
638 1 0.155556 3 0
639 1 0.155556 3 0
640 1 0.155556 3 0
641 1 0.155556 3 0
642 1 0.155556 3 0
643 1 0.155556 3 0
644 1 0.155556 3 0
645 1 0.155556 3 0
646 1 0.155556 3 0
647 1 0.155556 3 0
648 1 0.155556 3 0
649 1 0.155556 3 0
650 1 0.155556 3 0
651 1 0.155556 3 0
652 1 0.155556 3 0
653 1 0.155556 3 0
654 1 0.155556 3 0
655 1 0.155556 3 0
656 1 0.155556 3 0
657 1 0.155556 3 0
658 1 0.155556 3 0
659 1 0.155556 3 0
660 1 0.155556 3 0
661 1 0.155556 3 0
662 1 0.155556 3 0
663 1 0.155556 3 0
664 1 0.155556 3 0
665 1 0.155556 3 0
666 1 0.155556 3 0
667 1 0.155556 3 0
668 1 0.155556 3 0
669 1 0.155556 3 0
670 1 0.155556 3 0
671 1 0.155556 3 0
672 1 0.155556 3 0
673 1 0.155556 3 0
674 1 0.155556 3 0
675 1 0.155556 3 0
676 1 0.155556 3 0
677 1 0.155556 3 0
678 1 0.155556 3 0
679 1 0.155556 3 0
680 1 0.155556 3 0
681 1 0.155556 3 0
682 1 0.155556 3 0
683 1 0.155556 3 0
684 1 0.155556 3 0
685 1 0.155556 3 0
686 1 0.155556 3 0
687 1 0.155556 3 0
688 1 0.155556 3 0
689 1 0.155556 3 0
690 1 0.155556 3 0
691 1 0.155556 3 0
692 1 0.155556 3 0
693 1 0.155556 3 0
694 1 0.155556 3 0
695 1 0.155556 3 0
696 1 0.155556 3 0
697 1 0.155556 3 0
698 1 0.155556 3 0
699 1 0.155556 3 0
700 1 0.155556 3 0
701 1 0.155556 3 0
702 1 0.155556 3 0
703 1 0.155556 3 0
704 1 0.155556 3 0
705 1 0.155556 3 0
706 1 0.155556 3 0
707 1 0.155556 3 0
708 1 0.155556 3 0
709 1 0.155556 3 0
710 1 0.155556 3 0
711 1 0.155556 3 0
712 1 0.155556 3 0
713 1 0.155556 3 0
714 1 0.155556 3 0
715 1 0.155556 3 0
716 1 0.155556 3 0
717 1 0.155556 3 0
718 1 0.155556 3 0
719 1 0.155556 3 0
720 1 0.155556 3 0
721 1 0.155556 3 0
722 1 0.155556 3 0
723 1 0.155556 3 0
724 1 0.155556 3 0
725 1 0.155556 3 0
726 1 0.155556 3 0
727 1 0.155556 3 0
728 1 0.155556 3 0
729 1 0.155556 3 0
730 1 0.155556 3 0
731 1 0.155556 3 0
732 1 0.155556 3 0
733 1 0.155556 3 0
734 1 0.155556 3 0
735 1 0.155556 3 0
736 1 0.155556 3 0
737 1 0.155556 3 0
738 1 0.155556 3 0
739 1 0.155556 3 0
740 1 0.155556 3 0
741 1 0.155556 3 0
742 1 0.155556 3 0
743 1 0.155556 3 0
744 1 0.155556 3 0
745 1 0.155556 3 0
746 1 0.155556 3 0
747 1 0.155556 3 0
748 1 0.155556 3 0
749 1 0.155556 3 0
750 1 0.155556 3 0
751 1 0.155556 3 0
752 1 0.155556 3 0
753 1 0.155556 3 0
754 1 0.155556 3 0
755 1 0.155556 3 0
756 1 0.155556 3 0
757 1 0.155556 3 0
758 1 0.155556 3 0
759 1 0.155556 3 0
760 1 0.155556 3 0
761 1 0.155556 3 0
762 1 0.155556 3 0
763 1 0.155556 3 0
764 1 0.155556 3 0
765 1 0.155556 3 0
766 1 0.155556 3 0
767 1 0.155556 3 0
768 1 0.155556 3 0
769 1 0.155556 3 0
770 1 0.155556 3 0
771 1 0.155556 3 0
772 1 0.155556 3 0
773 1 0.155556 3 0
774 1 0.155556 3 0
775 1 0.155556 3 0
776 1 0.155556 3 0
777 1 0.155556 3 0
778 1 0.155556 3 0
779 1 0.155556 3 0
780 1 0.155556 3 0
781 1 0.155556 3 0
782 1 0.155556 3 0
783 1 0.155556 3 0
784 1 0.155556 3 0
785 1 0.155556 3 0
786 1 0.155556 3 0
787 1 0.155556 3 0
788 1 0.155556 3 0
789 1 0.155556 3 0
790 1 0.155556 3 0
791 1 0.155556 3 0
792 1 0.155556 3 0
793 1 0.155556 3 0
794 1 0.155556 3 0
795 1 0.155556 3 0
796 1 0.155556 3 0
797 1 0.155556 3 0
798 1 0.155556 3 0
799 1 0.155556 3 0
800 1 0.155556 3 0
801 1 0.155556 3 0
802 1 0.155556 3 0
803 1 0.155556 3 0
804 1 0.155556 3 0
805 1 0.155556 3 0
806 1 0.155556 3 0
807 1 0.155556 3 0
808 1 0.155556 3 0
809 1 0.155556 3 0
810 1 0.155556 3 0
811 1 0.155556 3 0
812 1 0.155556 3 0
813 1 0.155556 3 0
814 1 0.155556 3 0
815 1 0.155556 3 0
816 1 0.155556 3 0
817 1 0.155556 3 0
818 1 0.155556 3 0
819 1 0.155556 3 0
820 1 0.155556 3 0
821 1 0.155556 3 0
822 1 0.155556 3 0
823 1 0.155556 3 0
824 1 0.155556 3 0
825 1 0.155556 3 0
826 1 0.155556 3 0
827 1 0.155556 3 0
828 1 0.155556 3 0
829 1 0.155556 3 0
830 1 0.155556 3 0
831 1 0.155556 3 0
832 1 0.155556 3 0
833 1 0.155556 3 0
834 1 0.155556 3 0
835 1 0.155556 3 0
836 1 0.155556 3 0
837 1 0.155556 3 0
838 1 0.155556 3 0
839 1 0.155556 3 0
840 1 0.155556 3 0
841 1 0.155556 3 0
842 1 0.155556 3 0
843 1 0.155556 3 0
844 1 0.155556 3 0
845 1 0.155556 3 0
846 1 0.155556 3 0
847 1 0.155556 3 0
848 1 0.155556 3 0
849 1 0.155556 3 0
850 1 0.155556 3 0
851 1 0.155556 3 0
852 1 0.155556 3 0
853 1 0.155556 3 0
854 1 0.155556 3 0
855 1 0.155556 3 0
856 1 0.155556 3 0
857 1 0.155556 3 0
858 1 0.155556 3 0
859 1 0.155556 3 0
860 1 0.155556 3 0
861 1 0.155556 3 0
862 1 0.155556 3 0
863 1 0.155556 3 0
864 1 0.155556 3 0
865 1 0.155556 3 0
866 1 0.155556 3 0
867 1 0.155556 3 0
868 1 0.155556 3 0
869 1 0.155556 3 0
870 1 0.155556 3 0
871 1 0.155556 3 0
872 1 0.155556 3 0
873 1 0.155556 3 0
874 1 0.155556 3 0
875 1 0.155556 3 0
876 1 0.155556 3 0
877 1 0.155556 3 0
878 1 0.155556 3 0
879 1 0.155556 3 0
880 1 0.155556 3 0
881 1 0.155556 3 0
882 1 0.155556 3 0
883 1 0.155556 3 0
884 1 0.155556 3 0
885 1 0.155556 3 0
886 1 0.155556 3 0
887 1 0.155556 3 0
888 1 0.155556 3 0
889 1 0.155556 3 0
890 1 0.155556 3 0
891 1 0.155556 3 0
892 1 0.155556 3 0
893 1 0.155556 3 0
894 1 0.155556 3 0
895 1 0.155556 3 0
896 1 0.155556 3 0
897 1 0.155556 3 0
898 1 0.155556 3 0
899 1 0.155556 3 0
900 1 0.155556 3 0
901 1 0.155556 3 0
902 1 0.155556 3 0
903 1 0.155556 3 0
904 1 0.155556 3 0
905 1 0.155556 3 0
906 1 0.155556 3 0
907 1 0.155556 3 0
908 1 0.155556 3 0
909 1 0.155556 3 0
910 1 0.155556 3 0
911 1 0.155556 3 0
912 1 0.155556 3 0
913 1 0 2 0
914 1 0 2 0
915 1 0 2 0
916 1 0 2 0
917 1 0 2 0
918 1 0 2 0
919 1 0 2 0
920 1 0 2 0
921 1 0 2 0
922 1 0 2 0
923 1 0 2 0
924 1 0 2 0
925 1 0 2 0
926 1 0 2 0
927 1 0 2 0
928 1 0 2 0
929 1 0 2 0
930 1 0 2 0
931 1 0 2 0
932 1 0 2 0
933 1 0 2 0
934 1 0 2 0
935 1 0 2 0
936 1 0 2 0
937 1 0 2 0
938 1 0 2 0
939 1 0 2 0
940 1 0 2 0
941 1 0 2 0
942 1 0 2 0
943 1 0 2 0
944 1 0 2 0
945 1 0 2 0
946 1 0 2 0
947 1 0 2 0
948 1 0 2 0
949 1 0 2 0
950 1 0 2 0
951 1 0 2 0
952 1 0 2 0
953 1 0 2 0
954 1 0 2 0
955 1 0 2 0
956 1 0 2 0
957 1 0 2 0
958 1 0 2 0
959 1 0 2 0
960 1 0 2 0
961 1 0 2 0
962 1 0 2 0
963 1 0 2 0
964 1 0 2 0
965 1 0 2 0
966 1 0 2 0
967 1 0 2 0
968 1 0 2 0
969 1 0 2 0
970 1 0 2 0
971 1 0 2 0
972 1 0 2 0
973 1 0 2 0
974 1 0 2 0
975 1 0 2 0
976 1 0 2 0
977 1 0 2 0
978 1 0 2 0
979 1 0 2 0
980 1 0 2 0
981 1 0 2 0
982 1 0 2 0
983 1 0 2 0
984 1 0 2 0
985 1 0 2 0
986 1 0 2 0
987 1 0 2 0
988 1 0 2 0
989 1 0 2 0
990 1 0 2 0
991 1 0 2 0
992 1 0 2 0
993 1 0 2 0
994 1 0 2 0
995 1 0 2 0
996 1 0 2 0
997 1 0 2 0
998 1 0 2 0
999 1 0 2 0
1000 1 0 2 0
1001 1 0 2 0
1002 1 0 2 0
1003 1 0 2 0
1004 1 0 2 0
1005 1 0 2 0
1006 1 0 2 0
1007 1 0 2 0
1008 1 0 2 0
1009 1 0 2 0
1010 1 0 2 0
1011 1 0 2 0
1012 1 0 2 0
1013 1 0 2 0
1014 1 0 2 0
1015 1 0 2 0
1016 1 0 2 0
1017 1 0 2 0
1018 1 0 2 0
1019 1 0 2 0
1020 1 0 2 0
1021 1 0 2 0
1022 1 0 2 0
1023 1 0 2 0
1024 1 0 2 0
1025 1 0 2 0
1026 1 0 2 0
1027 1 0 2 0
1028 1 0 2 0
1029 1 0 2 0
1030 1 0 2 0
1031 1 0 2 0
1032 1 0 2 0
1033 1 0 2 0
1034 1 0 2 0
1035 1 0 2 0
1036 1 0 2 0
1037 1 0 2 0
1038 1 0 2 0
1039 1 0 2 0
1040 1 0 2 0
1041 1 0 2 0
1042 1 0 2 0
1043 1 0 2 0
1044 1 0 2 0
1045 1 0 2 0
1046 1 0 2 0
1047 1 0 2 0
1048 1 0 2 0
1049 1 0 2 0
1050 1 0 2 0
1051 1 0 2 0
1052 1 0 2 0
1053 1 0 2 0
1054 1 0 2 0
1055 1 0 2 0
1056 1 0 2 0
1057 1 0 2 0
1058 1 0 2 0
1059 1 0 2 0
1060 1 0 2 0
1061 1 0 2 0
1062 1 0 2 0
1063 1 0 2 0
1064 1 0 2 0
1065 1 0 2 0
1066 1 0 2 0
1067 1 0 2 0
1068 1 0 2 0
1069 1 0 2 0
1070 1 0 2 0
1071 1 0 2 0
1072 1 0 2 0
1073 1 0 2 0
1074 1 0 2 0
1075 1 0 2 0
1076 1 0 2 0
1077 1 0 2 0
1078 1 0 2 0
1079 1 0 2 0
1080 1 0 2 0
1081 1 0 2 0
1082 1 0 2 0
1083 1 0 2 0
1084 1 0 2 0
1085 1 0 2 0
1086 1 0 2 0
1087 1 0 2 0
1088 1 0 2 0
1089 1 0 2 0
1090 1 0 2 0
1091 1 0 2 0
1092 1 0 2 0
1093 1 0 2 0
1094 1 0 2 0
1095 1 0 2 0
1096 1 0 2 0
1097 1 0 2 0
1098 1 0 2 0
1099 1 0 2 0
1100 1 0 2 0
1101 1 0 2 0
1102 1 0 2 0
1103 1 0 2 0
1104 1 0 2 0
1105 1 0 2 0
1106 1 0 2 0
1107 1 0 2 0
1108 1 0 2 0
1109 1 0 2 0
1110 1 0 2 0
1111 1 0 2 0
1112 1 0 2 0
1113 1 0 2 0
1114 1 0 2 0
1115 1 0 2 0
1116 1 0 2 0
1117 1 0 2 0
1118 1 0 2 0
1119 1 0 2 0
1120 1 0 2 0
1121 1 0 2 0
1122 1 0 2 0
1123 1 0 2 0
1124 1 0 2 0
1125 1 0 2 0
1126 1 0 2 0
1127 1 0 2 0
1128 1 0 2 0
1129 1 0 2 0
1130 1 0 2 0
1131 1 0 2 0
1132 1 0 2 0
1133 1 0 2 0
1134 1 0 2 0
1135 1 0 2 0
1136 1 0 2 0
1137 1 0 2 0
1138 1 0 2 0
1139 1 0 2 0
1140 1 0 2 0
1141 1 0 2 0
1142 1 0 2 0
1143 1 0 2 0
1144 1 0 2 0
1145 1 0 2 0
1146 1 0 2 0
1147 1 0 2 0
1148 1 0 2 0
1149 1 0 2 0
1150 1 0 2 0
1151 1 0 2 0
1152 1 0 2 0
1153 1 0 2 0
1154 1 0 2 0
1155 1 0 2 0
1156 1 0 2 0
1157 1 0 2 0
1158 1 0 2 0
1159 1 0 2 0
1160 1 0 2 0
1161 1 0 2 0
1162 1 0 2 0
1163 1 0 2 0
1164 1 0 2 0
1165 1 0 2 0
1166 1 0 2 0
1167 1 0 2 0
1168 1 0 2 0
1169 1 0 2 0
1170 1 0 2 0
1171 1 0 2 0
1172 1 0 2 0
1173 1 0 2 0
1174 1 0 2 0
1175 1 0 2 0
1176 1 0 2 0
1177 1 0 2 0
1178 1 0 2 0
1179 1 0 2 0
1180 1 0 2 0
1181 1 0 2 0
1182 1 0 2 0
1183 1 0 2 0
1184 1 0 2 0
1185 1 0 2 0
1186 1 0 2 0
1187 1 0 2 0
1188 1 0 2 0
1189 1 0 2 0
1190 1 0 2 0
1191 1 0 2 0
1192 1 0 2 0
1193 1 0 2 0
1194 1 0 2 0
1195 1 0 2 0
1196 1 0 2 0
1197 1 0 2 0
1198 1 0 2 0
1199 1 0 2 0
1200 1 0 2 0
1201 1 0 2 0
1202 1 0 2 0
1203 1 0 2 0
1204 1 0 2 0
1205 1 0 2 0
1206 1 0 2 0
1207 1 0 2 0
1208 1 0 2 0
1209 1 0 2 0
1210 1 0 2 0
1211 1 0 2 0
1212 1 0 2 0
1213 1 0.166667 3 0
1214 1 0.166667 3 0
1215 1 0.166667 3 0
1216 1 0.166667 3 0
1217 1 0.166667 3 0
1218 1 0.166667 3 0
1219 1 0.166667 3 0
1220 1 0.166667 3 0
1221 1 0.166667 3 0
1222 1 0.166667 3 0
1223 1 0.166667 3 0
1224 1 0.166667 3 0
1225 1 0.166667 3 0
1226 1 0.166667 3 0
1227 1 0.166667 3 0
1228 1 0.166667 3 0
1229 1 0.166667 3 0
1230 1 0.166667 3 0
1231 1 0.166667 3 0
1232 1 0.166667 3 0
1233 1 0.166667 3 0
1234 1 0.166667 3 0
1235 1 0.166667 3 0
1236 1 0.166667 3 0
1237 1 0.166667 3 0
1238 1 0.166667 3 0
1239 1 0.166667 3 0
1240 1 0.166667 3 0
1241 1 0.166667 3 0
1242 1 0.166667 3 0
1243 1 0.166667 3 0
1244 1 0.166667 3 0
1245 1 0.166667 3 0
1246 1 0.166667 3 0
1247 1 0.166667 3 0
1248 1 0.166667 3 0
1249 1 0.166667 3 0
1250 1 0.166667 3 0
1251 1 0.166667 3 0
1252 1 0.166667 3 0
1253 1 0.166667 3 0
1254 1 0.166667 3 0
1255 1 0.166667 3 0
1256 1 0.166667 3 0
1257 1 0.166667 3 0
1258 1 0.166667 3 0
1259 1 0.166667 3 0
1260 1 0.166667 3 0
1261 1 0.166667 3 0
1262 1 0.166667 3 0
1263 1 0.166667 3 0
1264 1 0.166667 3 0
1265 1 0.166667 3 0
1266 1 0.166667 3 0
1267 1 0.166667 3 0
1268 1 0.166667 3 0
1269 1 0.166667 3 0
1270 1 0.166667 3 0
1271 1 0.166667 3 0
1272 1 0.166667 3 0
1273 1 0.166667 3 0
1274 1 0.166667 3 0
1275 1 0.166667 3 0
1276 1 0.166667 3 0
1277 1 0.166667 3 0
1278 1 0.166667 3 0
1279 1 0.166667 3 0
1280 1 0.166667 3 0
1281 1 0.166667 3 0
1282 1 0.166667 3 0
1283 1 0.166667 3 0
1284 1 0.166667 3 0
1285 1 0.166667 3 0
1286 1 0.166667 3 0
1287 1 0.166667 3 0
1288 1 0.166667 3 0
1289 1 0.166667 3 0
1290 1 0.166667 3 0
1291 1 0.166667 3 0
1292 1 0.166667 3 0
1293 1 0.166667 3 0
1294 1 0.166667 3 0
1295 1 0.166667 3 0
1296 1 0.166667 3 0
1297 1 0.166667 3 0
1298 1 0.166667 3 0
1299 1 0.166667 3 0
1300 1 0.166667 3 0
1301 1 0.166667 3 0
1302 1 0.166667 3 0
1303 1 0.166667 3 0
1304 1 0.166667 3 0
1305 1 0.166667 3 0
1306 1 0.166667 3 0
1307 1 0.166667 3 0
1308 1 0.166667 3 0
1309 1 0.166667 3 0
1310 1 0.166667 3 0
1311 1 0.166667 3 0
1312 1 0.166667 3 0
1313 1 0.166667 3 0
1314 1 0.166667 3 0
1315 1 0.166667 3 0
1316 1 0.166667 3 0
1317 1 0.166667 3 0
1318 1 0.166667 3 0
1319 1 0.166667 3 0
1320 1 0.166667 3 0
1321 1 0.166667 3 0
1322 1 0.166667 3 0
1323 1 0.166667 3 0
1324 1 0.166667 3 0
1325 1 0.166667 3 0
1326 1 0.166667 3 0
1327 1 0.166667 3 0
1328 1 0.166667 3 0
1329 1 0.166667 3 0
1330 1 0.166667 3 0
1331 1 0.166667 3 0
1332 1 0.166667 3 0
1333 1 0.166667 3 0
1334 1 0.166667 3 0
1335 1 0.166667 3 0
1336 1 0.166667 3 0
1337 1 0.166667 3 0
1338 1 0.166667 3 0
1339 1 0.166667 3 0
1340 1 0.166667 3 0
1341 1 0.166667 3 0
1342 1 0.166667 3 0
1343 1 0.166667 3 0
1344 1 0.166667 3 0
1345 1 0.166667 3 0
1346 1 0.166667 3 0
1347 1 0.166667 3 0
1348 1 0.166667 3 0
1349 1 0.166667 3 0
1350 1 0.166667 3 0
1351 1 0.166667 3 0
1352 1 0.166667 3 0
1353 1 0.166667 3 0
1354 1 0.166667 3 0
1355 1 0.166667 3 0
1356 1 0.166667 3 0
1357 1 0.166667 3 0
1358 1 0.166667 3 0
1359 1 0.166667 3 0
1360 1 0.166667 3 0
1361 1 0.166667 3 0
1362 1 0.166667 3 0
1363 1 0.166667 3 0
1364 1 0.166667 3 0
1365 1 0.166667 3 0
1366 1 0.166667 3 0
1367 1 0.166667 3 0
1368 1 0.166667 3 0
1369 1 0.166667 3 0
1370 1 0.166667 3 0
1371 1 0.166667 3 0
1372 1 0.166667 3 0
1373 1 0.166667 3 0
1374 1 0.166667 3 0
1375 1 0.166667 3 0
1376 1 0.166667 3 0
1377 1 0.166667 3 0
1378 1 0.166667 3 0
1379 1 0.166667 3 0
1380 1 0.166667 3 0
1381 1 0.166667 3 0
1382 1 0.166667 3 0
1383 1 0.166667 3 0
1384 1 0.166667 3 0
1385 1 0.166667 3 0
1386 1 0.166667 3 0
1387 1 0.166667 3 0
1388 1 0.166667 3 0
1389 1 0.166667 3 0
1390 1 0.166667 3 0
1391 1 0.166667 3 0
1392 1 0.166667 3 0
1393 1 0.166667 3 0
1394 1 0.166667 3 0
1395 1 0.166667 3 0
1396 1 0.166667 3 0
1397 1 0.166667 3 0
1398 1 0.166667 3 0
1399 1 0.166667 3 0
1400 1 0.166667 3 0
1401 1 0.166667 3 0
1402 1 0.166667 3 0
1403 1 0.166667 3 0
1404 1 0.166667 3 0
1405 1 0.166667 3 0
1406 1 0.166667 3 0
1407 1 0.166667 3 0
1408 1 0.166667 3 0
1409 1 0.166667 3 0
1410 1 0.166667 3 0
1411 1 0.166667 3 0
1412 1 0.166667 3 0
1413 1 0.166667 3 0
1414 1 0.166667 3 0
1415 1 0.166667 3 0
1416 1 0.166667 3 0
1417 1 0.166667 3 0
1418 1 0.166667 3 0
1419 1 0.166667 3 0
1420 1 0.166667 3 0
1421 1 0.166667 3 0
1422 1 0.166667 3 0
1423 1 0.166667 3 0
1424 1 0.166667 3 0
1425 1 0.166667 3 0
1426 1 0.166667 3 0
1427 1 0.166667 3 0
1428 1 0.166667 3 0
1429 1 0.166667 3 0
1430 1 0.166667 3 0
1431 1 0.166667 3 0
1432 1 0.166667 3 0
1433 1 0.166667 3 0
1434 1 0.166667 3 0
1435 1 0.166667 3 0
1436 1 0.166667 3 0
1437 1 0.166667 3 0
1438 1 0.166667 3 0
1439 1 0.166667 3 0
1440 1 0.166667 3 0
1441 1 0.166667 3 0
1442 1 0.166667 3 0
1443 1 0.166667 3 0
1444 1 0.166667 3 0
1445 1 0.166667 3 0
1446 1 0.166667 3 0
1447 1 0.166667 3 0
1448 1 0.166667 3 0
1449 1 0.166667 3 0
1450 1 0.166667 3 0
1451 1 0.166667 3 0
1452 1 0.166667 3 0
1453 1 0.166667 3 0
1454 1 0.166667 3 0
1455 1 0.166667 3 0
1456 1 0.166667 3 0
1457 1 0.166667 3 0
1458 1 0.166667 3 0
1459 1 0.166667 3 0
1460 1 0.166667 3 0
1461 1 0.166667 3 0
1462 1 0.166667 3 0
1463 1 0.166667 3 0
1464 1 0.166667 3 0
1465 1 0.166667 3 0
1466 1 0.166667 3 0
1467 1 0.166667 3 0
1468 1 0.166667 3 0
1469 1 0.166667 3 0
1470 1 0.166667 3 0
1471 1 0.166667 3 0
1472 1 0.166667 3 0
1473 1 0.166667 3 0
1474 1 0.166667 3 0
1475 1 0.166667 3 0
1476 1 0.166667 3 0
1477 1 0.166667 3 0
1478 1 0.166667 3 0
1479 1 0.166667 3 0
1480 1 0.166667 3 0
1481 1 0.166667 3 0
1482 1 0.166667 3 0
1483 1 0.166667 3 0
1484 1 0.166667 3 0
1485 1 0.166667 3 0
1486 1 0.166667 3 0
1487 1 0.166667 3 0
1488 1 0.166667 3 0
1489 1 0.166667 3 0
1490 1 0.166667 3 0
1491 1 0.166667 3 0
1492 1 0.166667 3 0
1493 1 0.166667 3 0
1494 1 0.166667 3 0
1495 1 0.166667 3 0
1496 1 0.166667 3 0
1497 1 0.166667 3 0
1498 1 0.166667 3 0
1499 1 0.166667 3 0
1500 1 0.166667 3 0
1501 1 0.166667 3 0
1502 1 0.166667 3 0
1503 1 0.166667 3 0
1504 1 0.166667 3 0
1505 1 0.166667 3 0
1506 1 0.166667 3 0
1507 1 0.166667 3 0
1508 1 0.166667 3 0
1509 1 0.166667 3 0
1510 1 0.166667 3 0
1511 1 0.166667 3 0
1512 1 0.166667 3 0
1513 1 0.144444 3 0
1514 1 0.144444 3 0
1515 1 0.144444 3 0
1516 1 0.144444 3 0
1517 1 0.144444 3 0
1518 1 0.144444 3 0
1519 1 0.144444 3 0
1520 1 0.144444 3 0
1521 1 0.144444 3 0
1522 1 0.144444 3 0
1523 1 0.144444 3 0
1524 1 0.144444 3 0
1525 1 0.144444 3 0
1526 1 0.144444 3 0
1527 1 0.144444 3 0
1528 1 0.144444 3 0
1529 1 0.144444 3 0
1530 1 0.144444 3 0
1531 1 0.144444 3 0
1532 1 0.144444 3 0