----- GAMESS execution script 'rungms' -----
This job is running on host m3i009
under operating system Linux at Mon Jun 22 16:20:07 AEST 2020
Available scratch disk space (Kbyte units) at beginning of the job is
Filesystem                                    1K-blocks          Used    Available Use% Mounted on
172.16.192.2@o2ib:172.16.192.3@o2ib:/fs01 2227265905728 1847155841908 268701505616  88% /scratch
GAMESS temporary binary files will be written to /scratch/sn29/tmason1/14828322
GAMESS supplementary output files will be written to /scratch/sn29/tmason1/14828322
Copying input file spec.inp to your run's scratch directory...
MPI kickoff will run GAMESS on 16 cores in 1 nodes.
The binary to be executed is /usr/local/gamess/16srs1-v2/gamess.00.x
MPI will run 16 compute processes and 16 data servers,
    placing  of each process type onto each node.
The scratch disk space on each node is /scratch/sn29/tmason1/14828322, with free space
Filesystem                                    1K-blocks          Used    Available Use% Mounted on
172.16.192.2@o2ib:172.16.192.3@o2ib:/fs01 2227265905728 1847155841908 268701505616  88% /scratch
          ******************************************************
          *         GAMESS VERSION = 18 AUG 2016 (R1)          *
          *             FROM IOWA STATE UNIVERSITY             *
          * M.W.SCHMIDT, K.K.BALDRIDGE, J.A.BOATZ, S.T.ELBERT, *
          *   M.S.GORDON, J.H.JENSEN, S.KOSEKI, N.MATSUNAGA,   *
          *          K.A.NGUYEN, S.J.SU, T.L.WINDUS,           *
          *       TOGETHER WITH M.DUPUIS, J.A.MONTGOMERY       *
          *         J.COMPUT.CHEM.  14, 1347-1363(1993)        *
          **************** 64 BIT INTEL VERSION ****************

  SINCE 1993, STUDENTS AND POSTDOCS WORKING AT IOWA STATE UNIVERSITY
  AND ALSO IN THEIR VARIOUS JOBS AFTER LEAVING ISU HAVE MADE IMPORTANT
  CONTRIBUTIONS TO THE CODE:
     IVANA ADAMOVIC, CHRISTINE AIKENS, YURI ALEXEEV, POOJA ARORA,
     ANDREY ASADCHEV, ROB BELL, PRADIPTA BANDYOPADHYAY, JONATHAN BENTZ,
     BRETT BODE, KURT BRORSEN, CALEB CARLIN, GALINA CHABAN, WEI CHEN,
     CHEOL HO CHOI, PAUL DAY, ALBERT DEFUSCO, NUWAN DESILVA, TIM DUDLEY,
     DMITRI FEDOROV, GRAHAM FLETCHER, MARK FREITAG, KURT GLAESEMANN,
     DAN KEMP, GRANT MERRILL, NORIYUKI MINEZAWA, JONATHAN MULLIN,
     TAKESHI NAGATA, SEAN NEDD, HEATHER NETZLOFF, BOSILJKA NJEGIC, RYAN OLSON,
     MIKE PAK, SPENCER PRUITT, LUKE ROSKOP, JIM SHOEMAKER, LYUDMILA SLIPCHENKO,
     TONY SMITH, SAROM SOK LEANG, JIE SONG, TETSUYA TAKETSUGU, SIMON WEBB,
     PENG XU, SOOHAENG YOO, FEDERICO ZAHARIEV

  ADDITIONAL CODE HAS BEEN PROVIDED BY COLLABORATORS IN OTHER GROUPS:
     IOWA STATE UNIVERSITY:
          JOE IVANIC, AARON WEST, LAIMUTIS BYTAUTAS, KLAUS RUEDENBERG
     UNIVERSITY OF TOKYO: KIMIHIKO HIRAO, TAKAHITO NAKAJIMA,
          TAKAO TSUNEDA, MUNEAKI KAMIYA, SUSUMU YANAGISAWA,
          KIYOSHI YAGI, MAHITO CHIBA, SEIKEN TOKURA, NAOAKI KAWAKAMI
     UNIVERSITY OF AARHUS: FRANK JENSEN
     UNIVERSITY OF IOWA: VISVALDAS KAIRYS, HUI LI
     NATIONAL INST. OF STANDARDS AND TECHNOLOGY: WALT STEVENS, DAVID GARMER
     UNIVERSITY OF PISA: BENEDETTA MENNUCCI, JACOPO TOMASI
     UNIVERSITY OF MEMPHIS: HENRY KURTZ, PRAKASHAN KORAMBATH
     UNIVERSITY OF ALBERTA: TOBY ZENG, MARIUSZ KLOBUKOWSKI
     UNIVERSITY OF NEW ENGLAND: MARK SPACKMAN
     MIE UNIVERSITY: HIROAKI UMEDA
     NAT. INST. OF ADVANCED INDUSTRIAL SCIENCE AND TECHNOLOGY: KAZUO KITAURA
     MICHIGAN STATE UNIVERSITY:
          KAROL KOWALSKI, MARTA WLOCH, JEFFREY GOUR, JESSE LUTZ,
          WEI LI, PIOTR PIECUCH
     UNIVERSITY OF SILESIA: MONIKA MUSIAL, STANISLAW KUCHARSKI
     FACULTES UNIVERSITAIRES NOTRE-DAME DE LA PAIX:
          OLIVIER QUINET, BENOIT CHAMPAGNE
     UNIVERSITY OF CALIFORNIA - SANTA BARBARA: BERNARD KIRTMAN
     INSTITUTE FOR MOLECULAR SCIENCE:
          KAZUYA ISHIMURA, MICHIO KATOUDA, AND SHIGERU NAGASE
     UNIVERSITY OF NOTRE DAME: ANNA POMOGAEVA, DAN CHIPMAN
     KYUSHU UNIVERSITY:
          HARUYUKI NAKANO,
          FENG LONG GU, JACEK KORCHOWIEC, MARCIN MAKOWSKI, AND YURIKO AOKI,
          HIROTOSHI MORI AND EISAKU MIYOSHI
     PENNSYLVANIA STATE UNIVERSITY:
          TZVETELIN IORDANOV, CHET SWALINA, JONATHAN SKONE,
          SHARON HAMMES-SCHIFFER
     WASEDA UNIVERSITY:
          MASATO KOBAYASHI, TOMOKO AKAMA, TSUGUKI TOUMA,
          TAKESHI YOSHIKAWA, YASUHIRO IKABATA, JUNJI SEINO,
          YUYA NAKAJIMA, HIROMI NAKAI
     NANJING UNIVERSITY: SHUHUA LI
     UNIVERSITY OF NEBRASKA:
          PEIFENG SU, DEJUN SI, NANDUN THELLAMUREGE, YALI WANG, HUI LI
     UNIVERSITY OF ZURICH: ROBERTO PEVERATI, KIM BALDRIDGE
     N. COPERNICUS UNIVERSITY AND JACKSON STATE UNIVERSITY:
          MARIA BARYSZ
     UNIVERSITY OF COPENHAGEN: Jimmy Kromann, CASPER STEINMANN
     TOKYO INSTITUTE OF TECHNOLOGY: HIROYA NAKATA
     NAGOYA UNIVERSITY: YOSHIO NISHIMOTO, STEPHAN IRLE
     MOSCOW STATE UNIVERSITY: VLADIMIR MIRONOV


 PARALLEL VERSION RUNNING ON        8 PROCESSORS IN        1 NODES.

 EXECUTION OF GAMESS BEGUN Mon Jun 22 16:20:08 2020

            ECHO OF THE FIRST FEW INPUT CARDS -
 INPUT CARD> $SYSTEM MEMDDI=1000 MWORDS=400 $END                                            
 INPUT CARD> $CONTRL ISPHER=1 MAXIT=200 MULT=3                                              
 INPUT CARD>  RUNTYP=ENERGY SCFTYP=ROHF $END                                                
 INPUT CARD> $SCF DIIS=.TRUE. DIRSCF=.TRUE. FDIFF=.FALSE. $END                              
 INPUT CARD> $BASIS GBASIS=CCT $END                                                         
 INPUT CARD> $ELPOT IEPOT=1 WHERE=PDC $END                                                  
 INPUT CARD> $PDC PTSEL=GEODESIC $END                                                       
 INPUT CARD> $DATA                                                                          
 INPUT CARD>dvb                                                                             
 INPUT CARD>C1                                                                              
 INPUT CARD> C       6.0   -0.3753090519   -0.3103729934    0.2110640386                    
 INPUT CARD> C       6.0    0.0870042798    0.2714777436    1.4034366832                    
 INPUT CARD> C       6.0   -0.3994791108    1.4674215976    1.9635468274                    
 INPUT CARD> C       6.0   -1.1577523210    2.4892273178    1.2443810729                    
 INPUT CARD> H       1.0   -1.2160941849    2.4414781858    0.1459010399                    
 INPUT CARD> C       6.0   -0.3717667155    1.5850940143    3.4282690683                    
 INPUT CARD> H       1.0    0.2066630291    0.8179905080    3.9706586486                    
 INPUT CARD> C       6.0   -1.0653634698    2.5013334251    4.0916972397                    
 INPUT CARD> H       1.0   -1.0943458563    2.5013455538    5.1906350665                    
 INPUT CARD> C       6.0   -1.7831319725    3.4713368155    1.8937961347                    
 INPUT CARD> H       1.0   -2.3661962789    4.2368109721    1.3596986944                    
 INPUT CARD> C       6.0   -1.8363026388    3.5407005879    3.3752726472                    
 INPUT CARD> C       6.0   -2.8222055262    4.3648362286    3.9580025179                    
 INPUT CARD> H       1.0   -3.0679265062    5.2607999982    3.3761206659                    
 INPUT CARD> C       6.0   -3.4689407219    4.1347234531    5.1552782823                    
 INPUT CARD> H       1.0   -3.3096409626    3.1939967088    5.7194795790                    
 INPUT CARD> H       1.0   -4.2779872879    4.8086677784    5.4825255884                    
 INPUT CARD> H       1.0    0.0042942235   -1.3021725538   -0.0883614041                    
 INPUT CARD> H       1.0   -1.2501827860    0.1123426238   -0.3217492880                    
 INPUT CARD> H       1.0    0.8838938590   -0.2286779651    1.9598668974                    
 INPUT CARD> $END                                                                           
  400000000 WORDS OF MEMORY AVAILABLE

     BASIS OPTIONS
     -------------
     GBASIS=CCT          IGAUSS=       0      POLAR=NONE    
     NDFUNC=       0     NFFUNC=       0     DIFFSP=       F
     NPFUNC=       0      DIFFS=       F     BASNAM=        


     RUN TITLE
     ---------
 dvb                                                                             

 THE POINT GROUP OF THE MOLECULE IS C1      
 THE ORDER OF THE PRINCIPAL AXIS IS     0

 ATOM      ATOMIC                      COORDINATES (BOHR)
           CHARGE         X                   Y                   Z
 C           6.0    -0.7092312688       -0.5865199115        0.3988531988
 C           6.0     0.1644142486        0.5130185472        2.6521107724
 C           6.0    -0.7549060572        2.7730247279        3.7105654678
 C           6.0    -2.1878346483        4.7039575518        2.3515392521
 H           1.0    -2.2980847847        4.6137247762        0.2757129867
 C           6.0    -0.7025372237        2.9953933518        6.4784891513
 H           1.0     0.3905364968        1.5457779207        7.5034568366
 C           6.0    -2.0132450353        4.7268347774        7.7321866078
 H           1.0    -2.0680138042        4.7268576973        9.8088779779
 C           6.0    -3.3696308280        6.5598753924        3.5787557712
 H           1.0    -4.4714626003        8.0064117990        2.5694579583
 C           6.0    -3.4701088179        6.6909539157        6.3783404371
 C           6.0    -5.3331951256        8.2483444533        7.4795402175
 H           1.0    -5.7975404472        9.9414704728        6.3799429600
 C           6.0    -6.5553474320        7.8134943614        9.7420633440
 H           1.0    -6.2543145371        6.0357785853       10.8082491967
 H           1.0    -8.0842237531        9.0870644672       10.3604710827
 H           1.0     0.0081149057       -2.4607493154       -0.1669788416
 H           1.0    -2.3625029001        0.2122967757       -0.6080179911
 H           1.0     1.6703171957       -0.4321386935        3.7036114085

          INTERNUCLEAR DISTANCES (ANGS.)
          ------------------------------

                1 C          2 C          3 C          4 C          5 H     

   1 C       0.0000000    1.4050041 *  2.4964642 *  3.0850808    2.8781680 *
   2 C       1.4050041 *  0.0000000    1.4073632 *  2.5481623 *  2.8263693 *
   3 C       2.4964642 *  1.4073632 *  0.0000000    1.4615966 *  2.2179907 *
   4 C       3.0850808    2.5481623 *  1.4615966 *  0.0000000    1.1010641 *
   5 H       2.8781680 *  2.8263693 *  2.2179907 *  1.1010641 *  0.0000000  
   6 C       3.7340616    2.4568282 *  1.4697027 *  2.4909029 *  3.4957435  
   7 H       3.9681793    2.6274747 *  2.1949184 *  3.4766724    4.3918927  
   8 C       4.8416095    3.6779006    2.4579259 *  2.8488404 *  3.9491278  
   9 H       5.7635842    4.5509087    3.4591816    3.9467820    5.0465581  
  10 C       4.3720569    3.7385773    2.4361931 *  1.3331837 *  2.1064847 *
  11 H       5.0950835    4.6630434    3.4499459    2.1278354 *  2.4534179 *
  12 C       5.1939856    4.2749345    2.8906604 *  2.4711790 *  3.4672452  
  13 C       6.4718183    5.6342606    4.2711203    3.6948687    4.5619094  
  14 H       6.9502331    6.2240186    4.8482673    3.9843060    4.6703509  
  15 C       7.3331231    6.4533501    5.1694529    4.8316008    5.7477176  
  16 H       7.1577617    6.2214582    5.0554065    5.0153595    6.0011666  
  17 H       8.3200831    7.5018805    6.2120820    5.7513076    6.5922938  
  18 H       1.1033678 *  2.1699488 *  3.4704484    4.1834516    3.9445085  
  19 H       1.1081438 *  2.1885292 *  2.7897158 *  2.8479622 *  2.3758643 *
  20 H       2.1565198 *  1.0930706 *  2.1269258 *  3.4737945    3.8509941  

                6 C          7 H          8 C          9 H         10 C     

   1 C       3.7340616    3.9681793    4.8416095    5.7635842    4.3720569  
   2 C       2.4568282 *  2.6274747 *  3.6779006    4.5509087    3.7385773  
   3 C       1.4697027 *  2.1949184 *  2.4579259 *  3.4591816    2.4361931 *
   4 C       2.4909029 *  3.4766724    2.8488404 *  3.9467820    1.3331837 *
   5 H       3.4957435    4.3918927    3.9491278    5.0465581    2.1064847 *
   6 C       0.0000000    1.1032748 *  1.3269167 *  2.1136630 *  2.8114891 *
   7 H       1.1032748 *  0.0000000    2.1133729 *  2.4524785 *  3.9131686  
   8 C       1.3269167 *  2.1133729 *  0.0000000    1.0993199 *  2.5073627 *
   9 H       2.1136630 *  2.4524785 *  1.0993199 *  0.0000000    3.5049189  
  10 C       2.8114891 *  3.9131686    2.5073627 *  3.5049189    0.0000000  
  11 H       3.9100301    5.0124894    3.4882466    4.3938044    1.1005338 *
  12 C       2.4437821 *  3.4556249    1.4791536 *  2.2195269 *  1.4840523 *
  13 C       3.7432920    4.6641526    2.5645684 *  2.8244432 *  2.4776931 *
  14 H       4.5588169    5.5511231    3.4838146    3.8473461    2.6552140 *
  15 C       4.3675689    5.0905898    3.0945680    2.8823383 *  3.7308576  
  16 H       4.0582408    4.5900080    2.8576632 *  2.3805408 *  4.1283170  
  17 H       5.4653414    6.1905844    4.1927493    3.9426525    4.5707479  
  18 H       4.5655690    4.5838508    5.7518445    6.5986032    5.4690248  
  19 H       4.1234996    4.5874944    5.0219464    6.0098254    4.0590046  
  20 H       2.6500297 *  2.3658909 *  3.9745776    4.6695100    4.5615240  

               11 H         12 C         13 C         14 H         15 C     

   1 C       5.0950835    5.1939856    6.4718183    6.9502331    7.3331231  
   2 C       4.6630434    4.2749345    5.6342606    6.2240186    6.4533501  
   3 C       3.4499459    2.8906604 *  4.2711203    4.8482673    5.1694529  
   4 C       2.1278354 *  2.4711790 *  3.6948687    3.9843060    4.8316008  
   5 H       2.4534179 *  3.4672452    4.5619094    4.6703509    5.7477176  
   6 C       3.9100301    2.4437821 *  3.7432920    4.5588169    4.3675689  
   7 H       5.0124894    3.4556249    4.6641526    5.5511231    5.0905898  
   8 C       3.4882466    1.4791536 *  2.5645684 *  3.4838146    3.0945680  
   9 H       4.3938044    2.2195269 *  2.8244432 *  3.8473461    2.8823383 *
  10 C       1.1005338 *  1.4840523 *  2.4776931 *  2.6552140 *  3.7308576  
  11 H       0.0000000    2.1972472 *  2.6411205 *  2.3678970 *  3.9538452  
  12 C       2.1972472 *  0.0000000    1.4109494 *  2.1155709 *  2.4873259 *
  13 C       2.6411205 *  1.4109494 *  0.0000000    1.0962282 *  1.3801042 *
  14 H       2.3678970 *  2.1155709 *  1.0962282 *  0.0000000    2.1434231 *
  15 C       3.9538452    2.4873259 *  1.3801042 *  2.1434231 *  0.0000000  
  16 H       4.5809648    2.7903827 *  2.1705437 *  3.1339165    1.1084522 *
  17 H       4.5803566    3.4655562    2.1541721 *  2.4709537 *  1.1026550 *
  18 H       6.1964862    6.2320123    7.5151281    8.0320474    8.3137811  
  19 H       4.5917309    5.0759379    6.2346799    6.5943194    7.1484450  
  20 H       5.5555269    4.8591210    6.2312191    6.9106459    6.9424127  

               16 H         17 H         18 H         19 H         20 H     

   1 C       7.1577617    8.3200831    1.1033678 *  1.1081438 *  2.1565198 *
   2 C       6.2214582    7.5018805    2.1699488 *  2.1885292 *  1.0930706 *
   3 C       5.0554065    6.2120820    3.4704484    2.7897158 *  2.1269258 *
   4 C       5.0153595    5.7513076    4.1834516    2.8479622 *  3.4737945  
   5 H       6.0011666    6.5922938    3.9445085    2.3758643 *  3.8509941  
   6 C       4.0582408    5.4653414    4.5655690    4.1234996    2.6500297 *
   7 H       4.5900080    6.1905844    4.5838508    4.5874944    2.3658909 *
   8 C       2.8576632 *  4.1927493    5.7518445    5.0219464    3.9745776  
   9 H       2.3805408 *  3.9426525    6.5986032    6.0098254    4.6695100  
  10 C       4.1283170    4.5707479    5.4690248    4.0590046    4.5615240  
  11 H       4.5809648    4.5803566    6.1964862    4.5917309    5.5555269  
  12 C       2.7903827 *  3.4655562    6.2320123    5.0759379    4.8591210  
  13 C       2.1705437 *  2.1541721 *  7.5151281    6.2346799    6.2312191  
  14 H       3.1339165    2.4709537 *  8.0320474    6.5943194    6.9106459  
  15 C       1.1084522 *  1.1026550 *  8.3137811    7.1484450    6.9424127  
  16 H       0.0000000    1.8976313 *  8.0578360    7.0876234    6.5905329  
  17 H       1.8976313 *  0.0000000    9.3120936    8.0568404    8.0267673  
  18 H       8.0578360    9.3120936    0.0000000    1.9050028 *  2.4741312 *
  19 H       7.0876234    8.0568404    1.9050028 *  0.0000000    3.1426662  
  20 H       6.5905329    8.0267673    2.4741312 *  3.1426662    0.0000000  

  * ... LESS THAN  3.000


     ATOMIC BASIS SET
     ----------------
 THE CONTRACTED PRIMITIVE FUNCTIONS HAVE BEEN UNNORMALIZED
 THE CONTRACTED BASIS FUNCTIONS ARE NOW NORMALIZED TO UNITY

  SHELL TYPE  PRIMITIVE        EXPONENT          CONTRACTION COEFFICIENT(S)

 C         

      1   S       1          8236.0000000    0.000542430189
      1   S       2          1235.0000000    0.004196427901
      1   S       3           280.8000000    0.021540914108
      1   S       4            79.2700000    0.083614949614
      1   S       5            25.5900000    0.239871618922
      1   S       6             8.9970000    0.443751820060
      1   S       7             3.3190000    0.353579696469
      1   S       8             0.3643000   -0.009176366076

      2   S       9          8236.0000000   -0.000196392234
      2   S      10          1235.0000000   -0.001525950274
      2   S      11           280.8000000   -0.007890449028
      2   S      12            79.2700000   -0.031514870532
      2   S      13            25.5900000   -0.096910008320
      2   S      14             8.9970000   -0.220541526288
      2   S      15             3.3190000   -0.296069112937
      2   S      16             0.3643000    1.040503432950

      3   S      17             0.9059000    1.000000000000

      4   S      18             0.1285000    1.000000000000

      5   P      19            18.7100000    0.039426387165
      5   P      20             4.1330000    0.244088984924
      5   P      21             1.2000000    0.815492008943

      6   P      22             0.3827000    1.000000000000

      7   P      23             0.1209000    1.000000000000

      8   D      24             1.0970000    1.000000000000

      9   D      25             0.3180000    1.000000000000

     10   F      26             0.7610000    1.000000000000

 C         

     11   S      27          8236.0000000    0.000542430189
     11   S      28          1235.0000000    0.004196427901
     11   S      29           280.8000000    0.021540914108
     11   S      30            79.2700000    0.083614949614
     11   S      31            25.5900000    0.239871618922
     11   S      32             8.9970000    0.443751820060
     11   S      33             3.3190000    0.353579696469
     11   S      34             0.3643000   -0.009176366076

     12   S      35          8236.0000000   -0.000196392234
     12   S      36          1235.0000000   -0.001525950274
     12   S      37           280.8000000   -0.007890449028
     12   S      38            79.2700000   -0.031514870532
     12   S      39            25.5900000   -0.096910008320
     12   S      40             8.9970000   -0.220541526288
     12   S      41             3.3190000   -0.296069112937
     12   S      42             0.3643000    1.040503432950

     13   S      43             0.9059000    1.000000000000

     14   S      44             0.1285000    1.000000000000

     15   P      45            18.7100000    0.039426387165
     15   P      46             4.1330000    0.244088984924
     15   P      47             1.2000000    0.815492008943

     16   P      48             0.3827000    1.000000000000

     17   P      49             0.1209000    1.000000000000

     18   D      50             1.0970000    1.000000000000

     19   D      51             0.3180000    1.000000000000

     20   F      52             0.7610000    1.000000000000

 C         

     21   S      53          8236.0000000    0.000542430189
     21   S      54          1235.0000000    0.004196427901
     21   S      55           280.8000000    0.021540914108
     21   S      56            79.2700000    0.083614949614
     21   S      57            25.5900000    0.239871618922
     21   S      58             8.9970000    0.443751820060
     21   S      59             3.3190000    0.353579696469
     21   S      60             0.3643000   -0.009176366076

     22   S      61          8236.0000000   -0.000196392234
     22   S      62          1235.0000000   -0.001525950274
     22   S      63           280.8000000   -0.007890449028
     22   S      64            79.2700000   -0.031514870532
     22   S      65            25.5900000   -0.096910008320
     22   S      66             8.9970000   -0.220541526288
     22   S      67             3.3190000   -0.296069112937
     22   S      68             0.3643000    1.040503432950

     23   S      69             0.9059000    1.000000000000

     24   S      70             0.1285000    1.000000000000

     25   P      71            18.7100000    0.039426387165
     25   P      72             4.1330000    0.244088984924
     25   P      73             1.2000000    0.815492008943

     26   P      74             0.3827000    1.000000000000

     27   P      75             0.1209000    1.000000000000

     28   D      76             1.0970000    1.000000000000

     29   D      77             0.3180000    1.000000000000

     30   F      78             0.7610000    1.000000000000

 C         

     31   S      79          8236.0000000    0.000542430189
     31   S      80          1235.0000000    0.004196427901
     31   S      81           280.8000000    0.021540914108
     31   S      82            79.2700000    0.083614949614
     31   S      83            25.5900000    0.239871618922
     31   S      84             8.9970000    0.443751820060
     31   S      85             3.3190000    0.353579696469
     31   S      86             0.3643000   -0.009176366076

     32   S      87          8236.0000000   -0.000196392234
     32   S      88          1235.0000000   -0.001525950274
     32   S      89           280.8000000   -0.007890449028
     32   S      90            79.2700000   -0.031514870532
     32   S      91            25.5900000   -0.096910008320
     32   S      92             8.9970000   -0.220541526288
     32   S      93             3.3190000   -0.296069112937
     32   S      94             0.3643000    1.040503432950

     33   S      95             0.9059000    1.000000000000

     34   S      96             0.1285000    1.000000000000

     35   P      97            18.7100000    0.039426387165
     35   P      98             4.1330000    0.244088984924
     35   P      99             1.2000000    0.815492008943

     36   P     100             0.3827000    1.000000000000

     37   P     101             0.1209000    1.000000000000

     38   D     102             1.0970000    1.000000000000

     39   D     103             0.3180000    1.000000000000

     40   F     104             0.7610000    1.000000000000

 H         

     41   S     105            33.8700000    0.025494863235
     41   S     106             5.0950000    0.190362765893
     41   S     107             1.1590000    0.852162022245

     42   S     108             0.3258000    1.000000000000

     43   S     109             0.1027000    1.000000000000

     44   P     110             1.4070000    1.000000000000

     45   P     111             0.3880000    1.000000000000

     46   D     112             1.0570000    1.000000000000

 C         

     47   S     113          8236.0000000    0.000542430189
     47   S     114          1235.0000000    0.004196427901
     47   S     115           280.8000000    0.021540914108
     47   S     116            79.2700000    0.083614949614
     47   S     117            25.5900000    0.239871618922
     47   S     118             8.9970000    0.443751820060
     47   S     119             3.3190000    0.353579696469
     47   S     120             0.3643000   -0.009176366076

     48   S     121          8236.0000000   -0.000196392234
     48   S     122          1235.0000000   -0.001525950274
     48   S     123           280.8000000   -0.007890449028
     48   S     124            79.2700000   -0.031514870532
     48   S     125            25.5900000   -0.096910008320
     48   S     126             8.9970000   -0.220541526288
     48   S     127             3.3190000   -0.296069112937
     48   S     128             0.3643000    1.040503432950

     49   S     129             0.9059000    1.000000000000

     50   S     130             0.1285000    1.000000000000

     51   P     131            18.7100000    0.039426387165
     51   P     132             4.1330000    0.244088984924
     51   P     133             1.2000000    0.815492008943

     52   P     134             0.3827000    1.000000000000

     53   P     135             0.1209000    1.000000000000

     54   D     136             1.0970000    1.000000000000

     55   D     137             0.3180000    1.000000000000

     56   F     138             0.7610000    1.000000000000

 H         

     57   S     139            33.8700000    0.025494863235
     57   S     140             5.0950000    0.190362765893
     57   S     141             1.1590000    0.852162022245

     58   S     142             0.3258000    1.000000000000

     59   S     143             0.1027000    1.000000000000

     60   P     144             1.4070000    1.000000000000

     61   P     145             0.3880000    1.000000000000

     62   D     146             1.0570000    1.000000000000

 C         

     63   S     147          8236.0000000    0.000542430189
     63   S     148          1235.0000000    0.004196427901
     63   S     149           280.8000000    0.021540914108
     63   S     150            79.2700000    0.083614949614
     63   S     151            25.5900000    0.239871618922
     63   S     152             8.9970000    0.443751820060
     63   S     153             3.3190000    0.353579696469
     63   S     154             0.3643000   -0.009176366076

     64   S     155          8236.0000000   -0.000196392234
     64   S     156          1235.0000000   -0.001525950274
     64   S     157           280.8000000   -0.007890449028
     64   S     158            79.2700000   -0.031514870532
     64   S     159            25.5900000   -0.096910008320
     64   S     160             8.9970000   -0.220541526288
     64   S     161             3.3190000   -0.296069112937
     64   S     162             0.3643000    1.040503432950

     65   S     163             0.9059000    1.000000000000

     66   S     164             0.1285000    1.000000000000

     67   P     165            18.7100000    0.039426387165
     67   P     166             4.1330000    0.244088984924
     67   P     167             1.2000000    0.815492008943

     68   P     168             0.3827000    1.000000000000

     69   P     169             0.1209000    1.000000000000

     70   D     170             1.0970000    1.000000000000

     71   D     171             0.3180000    1.000000000000

     72   F     172             0.7610000    1.000000000000

 H         

     73   S     173            33.8700000    0.025494863235
     73   S     174             5.0950000    0.190362765893
     73   S     175             1.1590000    0.852162022245

     74   S     176             0.3258000    1.000000000000

     75   S     177             0.1027000    1.000000000000

     76   P     178             1.4070000    1.000000000000

     77   P     179             0.3880000    1.000000000000

     78   D     180             1.0570000    1.000000000000

 C         

     79   S     181          8236.0000000    0.000542430189
     79   S     182          1235.0000000    0.004196427901
     79   S     183           280.8000000    0.021540914108
     79   S     184            79.2700000    0.083614949614
     79   S     185            25.5900000    0.239871618922
     79   S     186             8.9970000    0.443751820060
     79   S     187             3.3190000    0.353579696469
     79   S     188             0.3643000   -0.009176366076

     80   S     189          8236.0000000   -0.000196392234
     80   S     190          1235.0000000   -0.001525950274
     80   S     191           280.8000000   -0.007890449028
     80   S     192            79.2700000   -0.031514870532
     80   S     193            25.5900000   -0.096910008320
     80   S     194             8.9970000   -0.220541526288
     80   S     195             3.3190000   -0.296069112937
     80   S     196             0.3643000    1.040503432950

     81   S     197             0.9059000    1.000000000000

     82   S     198             0.1285000    1.000000000000

     83   P     199            18.7100000    0.039426387165
     83   P     200             4.1330000    0.244088984924
     83   P     201             1.2000000    0.815492008943

     84   P     202             0.3827000    1.000000000000

     85   P     203             0.1209000    1.000000000000

     86   D     204             1.0970000    1.000000000000

     87   D     205             0.3180000    1.000000000000

     88   F     206             0.7610000    1.000000000000

 H         

     89   S     207            33.8700000    0.025494863235
     89   S     208             5.0950000    0.190362765893
     89   S     209             1.1590000    0.852162022245

     90   S     210             0.3258000    1.000000000000

     91   S     211             0.1027000    1.000000000000

     92   P     212             1.4070000    1.000000000000

     93   P     213             0.3880000    1.000000000000

     94   D     214             1.0570000    1.000000000000

 C         

     95   S     215          8236.0000000    0.000542430189
     95   S     216          1235.0000000    0.004196427901
     95   S     217           280.8000000    0.021540914108
     95   S     218            79.2700000    0.083614949614
     95   S     219            25.5900000    0.239871618922
     95   S     220             8.9970000    0.443751820060
     95   S     221             3.3190000    0.353579696469
     95   S     222             0.3643000   -0.009176366076

     96   S     223          8236.0000000   -0.000196392234
     96   S     224          1235.0000000   -0.001525950274
     96   S     225           280.8000000   -0.007890449028
     96   S     226            79.2700000   -0.031514870532
     96   S     227            25.5900000   -0.096910008320
     96   S     228             8.9970000   -0.220541526288
     96   S     229             3.3190000   -0.296069112937
     96   S     230             0.3643000    1.040503432950

     97   S     231             0.9059000    1.000000000000

     98   S     232             0.1285000    1.000000000000

     99   P     233            18.7100000    0.039426387165
     99   P     234             4.1330000    0.244088984924
     99   P     235             1.2000000    0.815492008943

    100   P     236             0.3827000    1.000000000000

    101   P     237             0.1209000    1.000000000000

    102   D     238             1.0970000    1.000000000000

    103   D     239             0.3180000    1.000000000000

    104   F     240             0.7610000    1.000000000000

 C         

    105   S     241          8236.0000000    0.000542430189
    105   S     242          1235.0000000    0.004196427901
    105   S     243           280.8000000    0.021540914108
    105   S     244            79.2700000    0.083614949614
    105   S     245            25.5900000    0.239871618922
    105   S     246             8.9970000    0.443751820060
    105   S     247             3.3190000    0.353579696469
    105   S     248             0.3643000   -0.009176366076

    106   S     249          8236.0000000   -0.000196392234
    106   S     250          1235.0000000   -0.001525950274
    106   S     251           280.8000000   -0.007890449028
    106   S     252            79.2700000   -0.031514870532
    106   S     253            25.5900000   -0.096910008320
    106   S     254             8.9970000   -0.220541526288
    106   S     255             3.3190000   -0.296069112937
    106   S     256             0.3643000    1.040503432950

    107   S     257             0.9059000    1.000000000000

    108   S     258             0.1285000    1.000000000000

    109   P     259            18.7100000    0.039426387165
    109   P     260             4.1330000    0.244088984924
    109   P     261             1.2000000    0.815492008943

    110   P     262             0.3827000    1.000000000000

    111   P     263             0.1209000    1.000000000000

    112   D     264             1.0970000    1.000000000000

    113   D     265             0.3180000    1.000000000000

    114   F     266             0.7610000    1.000000000000

 H         

    115   S     267            33.8700000    0.025494863235
    115   S     268             5.0950000    0.190362765893
    115   S     269             1.1590000    0.852162022245

    116   S     270             0.3258000    1.000000000000

    117   S     271             0.1027000    1.000000000000

    118   P     272             1.4070000    1.000000000000

    119   P     273             0.3880000    1.000000000000

    120   D     274             1.0570000    1.000000000000

 C         

    121   S     275          8236.0000000    0.000542430189
    121   S     276          1235.0000000    0.004196427901
    121   S     277           280.8000000    0.021540914108
    121   S     278            79.2700000    0.083614949614
    121   S     279            25.5900000    0.239871618922
    121   S     280             8.9970000    0.443751820060
    121   S     281             3.3190000    0.353579696469
    121   S     282             0.3643000   -0.009176366076

    122   S     283          8236.0000000   -0.000196392234
    122   S     284          1235.0000000   -0.001525950274
    122   S     285           280.8000000   -0.007890449028
    122   S     286            79.2700000   -0.031514870532
    122   S     287            25.5900000   -0.096910008320
    122   S     288             8.9970000   -0.220541526288
    122   S     289             3.3190000   -0.296069112937
    122   S     290             0.3643000    1.040503432950

    123   S     291             0.9059000    1.000000000000

    124   S     292             0.1285000    1.000000000000

    125   P     293            18.7100000    0.039426387165
    125   P     294             4.1330000    0.244088984924
    125   P     295             1.2000000    0.815492008943

    126   P     296             0.3827000    1.000000000000

    127   P     297             0.1209000    1.000000000000

    128   D     298             1.0970000    1.000000000000

    129   D     299             0.3180000    1.000000000000

    130   F     300             0.7610000    1.000000000000

 H         

    131   S     301            33.8700000    0.025494863235
    131   S     302             5.0950000    0.190362765893
    131   S     303             1.1590000    0.852162022245

    132   S     304             0.3258000    1.000000000000

    133   S     305             0.1027000    1.000000000000

    134   P     306             1.4070000    1.000000000000

    135   P     307             0.3880000    1.000000000000

    136   D     308             1.0570000    1.000000000000

 H         

    137   S     309            33.8700000    0.025494863235
    137   S     310             5.0950000    0.190362765893
    137   S     311             1.1590000    0.852162022245

    138   S     312             0.3258000    1.000000000000

    139   S     313             0.1027000    1.000000000000

    140   P     314             1.4070000    1.000000000000

    141   P     315             0.3880000    1.000000000000

    142   D     316             1.0570000    1.000000000000

 H         

    143   S     317            33.8700000    0.025494863235
    143   S     318             5.0950000    0.190362765893
    143   S     319             1.1590000    0.852162022245

    144   S     320             0.3258000    1.000000000000

    145   S     321             0.1027000    1.000000000000

    146   P     322             1.4070000    1.000000000000

    147   P     323             0.3880000    1.000000000000

    148   D     324             1.0570000    1.000000000000

 H         

    149   S     325            33.8700000    0.025494863235
    149   S     326             5.0950000    0.190362765893
    149   S     327             1.1590000    0.852162022245

    150   S     328             0.3258000    1.000000000000

    151   S     329             0.1027000    1.000000000000

    152   P     330             1.4070000    1.000000000000

    153   P     331             0.3880000    1.000000000000

    154   D     332             1.0570000    1.000000000000

 H         

    155   S     333            33.8700000    0.025494863235
    155   S     334             5.0950000    0.190362765893
    155   S     335             1.1590000    0.852162022245

    156   S     336             0.3258000    1.000000000000

    157   S     337             0.1027000    1.000000000000

    158   P     338             1.4070000    1.000000000000

    159   P     339             0.3880000    1.000000000000

    160   D     340             1.0570000    1.000000000000

 TOTAL NUMBER OF BASIS SET SHELLS             =  160
 NUMBER OF CARTESIAN GAUSSIAN BASIS FUNCTIONS =  500
 NOTE: THIS RUN WILL RESTRICT THE MO VARIATION SPACE TO SPHERICAL HARMONICS.
 THE NUMBER OF ORBITALS KEPT IN THE VARIATIONAL SPACE WILL BE PRINTED LATER.
 NUMBER OF ELECTRONS                          =   70
 CHARGE OF MOLECULE                           =    0
 SPIN MULTIPLICITY                            =    3
 NUMBER OF OCCUPIED ORBITALS (ALPHA)          =   36
 NUMBER OF OCCUPIED ORBITALS (BETA )          =   34
 TOTAL NUMBER OF ATOMS                        =   20
 THE NUCLEAR REPULSION ENERGY IS      449.0651994148

     $CONTRL OPTIONS
     ---------------
 SCFTYP=ROHF         RUNTYP=ENERGY       EXETYP=RUN     
 MPLEVL=       0     CITYP =NONE         CCTYP =NONE         VBTYP =NONE    
 DFTTYP=NONE         TDDFT =NONE    
 MULT  =       3     ICHARG=       0     NZVAR =       0     COORD =UNIQUE  
 PP    =NONE         RELWFN=NONE         LOCAL =NONE         NUMGRD=       F
 ISPHER=       1     NOSYM =       0     MAXIT =     200     UNITS =ANGS    
 PLTORB=       F     MOLPLT=       F     AIMPAC=       F     FRIEND=        
 NPRINT=       7     IREST =       0     GEOM  =INPUT   
 NORMF =       0     NORMP =       0     ITOL  =      20     ICUT  =       9
 INTTYP=BEST         GRDTYP=BEST         QMTTOL= 1.0E-06

     $SYSTEM OPTIONS
     ---------------
  REPLICATED MEMORY=   400000000 WORDS (ON EVERY NODE).
 DISTRIBUTED MEMDDI=        1000 MILLION WORDS IN AGGREGATE,
 MEMDDI DISTRIBUTED OVER   8 PROCESSORS IS   125000000 WORDS/PROCESSOR.
 TOTAL MEMORY REQUESTED ON EACH PROCESSOR=   525000000 WORDS.
 TIMLIM=      525600.00 MINUTES, OR     365.0 DAYS.
 PARALL= T  BALTYP=  DLB     KDIAG=    0  COREFL= F
 MXSEQ2=     300 MXSEQ3=     150  mem10=         0

     INPUT FOR POTENTIAL-DERIVED CHARGES 
     -----------------------------------
     VDWSCL=    1.40   RMAX=    3.00   DELR=    0.80
     VDWINC=    0.20 PTDENS=    0.28
     LAYER =       4  NFREQ=      30 MAXPDC=   10000
     CONSTR=CHARGE    UNITS=ANGS      PTSEL=GEODESIC
     CENTER=  0.0000  0.0000  0.0000
     DPOLE =  0.0000  0.0000  0.0000
     QPOLE =  0.0000  0.0000  0.0000  0.0000  0.0000  0.0000


          ----------------
          PROPERTIES INPUT
          ----------------

     MOMENTS            FIELD           POTENTIAL          DENSITY
 IEMOM =       1   IEFLD =       0   IEPOT =       1   IEDEN =       0
 WHERE =COMASS     WHERE =NUCLEI     WHERE =PDC        WHERE =NUCLEI  
 OUTPUT=BOTH       OUTPUT=BOTH       OUTPUT=BOTH       OUTPUT=BOTH    
 IEMINT=       0   IEFINT=       0                     IEDINT=       0
                                                       MORB  =       0
          EXTRAPOLATION IN EFFECT
          DIIS IN EFFECT
 ORBITAL PRINTING OPTION: NPREO=     1   500     2     1

     -------------------------------
     INTEGRAL TRANSFORMATION OPTIONS
     -------------------------------
     NWORD  =            0
     CUTOFF = 1.0E-09     MPTRAN =       0
     DIRTRF =       T     AOINTS =DUP     

          ----------------------
          INTEGRAL INPUT OPTIONS
          ----------------------
 NOPK  =       1 NORDER=       0 SCHWRZ=       T

     ------------------------------------------
     THE POINT GROUP IS C1 , NAXIS= 0, ORDER= 1
     ------------------------------------------

 -- VARIATIONAL SPACE WILL BE RESTRICTED TO PURE SPHERICAL HARMONICS ONLY --
 AFTER EXCLUDING CONTAMINANT COMBINATIONS FROM THE CARTESIAN GAUSSIAN BASIS
 SET, THE NUMBER OF SPHERICAL HARMONICS KEPT IN THE VARIATION SPACE IS  440

     DIMENSIONS OF THE SYMMETRY SUBSPACES ARE
 A   =  440

 ..... DONE SETTING UP THE RUN .....
 CPU     0: STEP CPU TIME=     0.07 TOTAL CPU TIME=        0.1 (    0.0 MIN)
 TOTAL WALL CLOCK TIME=        0.1 SECONDS, CPU UTILIZATION IS  77.78%

          ********************
          1 ELECTRON INTEGRALS
          ********************
 ...... END OF ONE-ELECTRON INTEGRALS ......
 CPU     0: STEP CPU TIME=     0.02 TOTAL CPU TIME=        0.1 (    0.0 MIN)
 TOTAL WALL CLOCK TIME=        0.2 SECONDS, CPU UTILIZATION IS  56.25%

          -------------
          GUESS OPTIONS
          -------------
          GUESS =HUCKEL            NORB  =       0          NORDER=       0
          MIX   =       F          PRTMO =       F          PUNMO =       F
          TOLZ  = 1.0E-08          TOLE  = 1.0E-05
          SYMDEN=       F          PURIFY=       F

 INITIAL GUESS ORBITALS GENERATED BY HUCKEL   ROUTINE.
 HUCKEL GUESS REQUIRES   1811180 WORDS.

 STATISTICS FOR GENERATION OF SYMMETRY ORBITAL -Q- MATRIX
 NUMBER OF CARTESIAN ATOMIC ORBITALS=        500
 NUMBER OF SPHERICAL CONTAMINANTS DROPPED=    60
 NUMBER OF LINEARLY DEPENDENT MOS DROPPED=     0
 TOTAL NUMBER OF MOS IN VARIATION SPACE=     440

 SYMMETRIES FOR INITIAL GUESS ORBITALS FOLLOW.  ALPHA SET(S).
    36 ORBITALS ARE OCCUPIED (   10 CORE ORBITALS).
    11=A       12=A       13=A       14=A       15=A       16=A       17=A   
    18=A       19=A       20=A       21=A       22=A       23=A       24=A   
    25=A       26=A       27=A       28=A       29=A       30=A       31=A   
    32=A       33=A       34=A       35=A       36=A       37=A       38=A   
    39=A       40=A       41=A       42=A       43=A       44=A       45=A   
    46=A   

 SYMMETRIES FOR INITIAL GUESS ORBITALS FOLLOW.   BETA SET(S).
    34 ORBITALS ARE OCCUPIED (   10 CORE ORBITALS).
    11=A       12=A       13=A       14=A       15=A       16=A       17=A   
    18=A       19=A       20=A       21=A       22=A       23=A       24=A   
    25=A       26=A       27=A       28=A       29=A       30=A       31=A   
    32=A       33=A       34=A       35=A       36=A       37=A       38=A   
    39=A       40=A       41=A       42=A       43=A       44=A   
 ...... END OF INITIAL ORBITAL SELECTION ......
 CPU     0: STEP CPU TIME=     0.30 TOTAL CPU TIME=        0.4 (    0.0 MIN)
 TOTAL WALL CLOCK TIME=        0.5 SECONDS, CPU UTILIZATION IS  84.78%

                    ----------------------
                    AO INTEGRAL TECHNOLOGY
                    ----------------------
     S,P,L SHELL ROTATED AXIS INTEGRALS, REPROGRAMMED BY
        KAZUYA ISHIMURA (IMS) AND JOSE SIERRA (SYNSTAR).
     S,P,D,L SHELL ROTATED AXIS INTEGRALS PROGRAMMED BY
        KAZUYA ISHIMURA (INSTITUTE FOR MOLECULAR SCIENCE).
     S,P,D,F,G SHELL TO TOTAL QUARTET ANGULAR MOMENTUM SUM 5,
        ERIC PROGRAM BY GRAHAM FLETCHER (ELORET AND NASA ADVANCED
        SUPERCOMPUTING DIVISION, AMES RESEARCH CENTER).
     S,P,D,F,G,L SHELL GENERAL RYS QUADRATURE PROGRAMMED BY
        MICHEL DUPUIS (PACIFIC NORTHWEST NATIONAL LABORATORY).

          --------------------
          2 ELECTRON INTEGRALS
          --------------------

 DIRECT SCF METHOD SKIPS INTEGRAL STORAGE ON DISK.
 DIRECT TRANSFORMATION SKIPS AO INTEGRAL STORAGE ON DISK.
  ...... END OF TWO-ELECTRON INTEGRALS .....
 CPU     0: STEP CPU TIME=     0.01 TOTAL CPU TIME=        0.4 (    0.0 MIN)
 TOTAL WALL CLOCK TIME=        0.5 SECONDS, CPU UTILIZATION IS  85.11%

          ---------------------------
                 ROHF SCF CALCULATION
          ---------------------------

     NUCLEAR ENERGY =       449.0651994148
     MAXIT =200     NPUNCH=  2     MULT=  3
     EXTRAP=T  DAMP=F  SHIFT=F  RSTRCT=F  DIIS=T  SOSCF=F
     DENSITY MATRIX CONV=  2.00E-05
     ROHF CANONICALIZATION PARAMETERS
             C-C     O-O     V-V
     ALPHA -0.5000  0.5000  1.5000
     BETA   1.5000  0.5000 -0.5000
     MEMORY REQUIRED FOR UHF/ROHF ITERS=   2358000 WORDS.

 DIRECT SCF CALCULATION, SCHWRZ=T   FDIFF=F
 SCHWARZ INEQUALITY OVERHEAD:    109266 INTEGRALS, T=        0.01

                                                                                NONZERO     BLOCKS
 ITER EX      TOTAL ENERGY        E CHANGE  DENSITY CHANGE    DIIS ERROR      INTEGRALS    SKIPPED
          * * *   INITIATING DIIS PROCEDURE   * * *
   1  0     -383.4003063967  -383.4003063967   1.201887288   0.206184188     3501712241   41197006
   2  1     -384.3642073612    -0.9639009644   0.104709611   0.062152845     3415190898   43012420
   3  2     -384.2843102076     0.0798971536   0.079133527   0.096562963     3424073871   42803923
   4  3     -384.4734117512    -0.1891015436   0.008486851   0.010074327     3421160956   42911844
   5  4     -384.4757086112    -0.0022968601   0.004791719   0.002833149     3421229000   42909877
   6  5     -384.4762995181    -0.0005909068   0.002316005   0.001446447     3421754544   42897725
   7  6     -384.4764770652    -0.0001775471   0.002174892   0.001519091     3421802331   42894972
   8  7     -384.4766602615    -0.0001831963   0.002532734   0.001103410     3421812623   42894025
   9  8     -384.4768499414    -0.0001896799   0.005488397   0.001155609     3421741035   42893486
  10  9     -384.4772180061    -0.0003680647   0.005638178   0.000915897     3421537038   42893281
  11 10     -384.4775239021    -0.0003058960   0.001898529   0.000765087     3421234091   42893950
  12 11     -384.4775244266    -0.0000005245   0.001571717   0.000892111     3421227097   42894934
  13 12     -384.4775916652    -0.0000672386   0.000791839   0.000884790     3421178895   42895577
  14 13     -384.4775612732     0.0000303920   0.015252099   0.000851198     3421199669   42895251
  15 14     -384.4770510905     0.0005101826   0.011951743   0.000642963     3421624806   42889719
  16 15     -384.4768633815     0.0001877090   0.002386944   0.000500716     3421794131   42885783
  17 16     -384.4768407107     0.0000226709   0.010599373   0.000705661     3421773146   42885000
  18 17     -384.4767470563     0.0000936544   0.009616973   0.000748513     3421649537   42882277
  19 18     -384.4765572216     0.0001898347   0.002046405   0.000651895     3421583043   42880932
  20 19     -384.4766117316    -0.0000545100   0.007476947   0.000599091     3421642718   42881000
  21 20     -384.4763545117     0.0002572199   0.001093450   0.000960191     3421551299   42880705
  22 21     -384.4763095739     0.0000449378   0.000957007   0.001016915     3421511856   42880791
  23 22     -384.4763513779    -0.0000418041   0.006173467   0.000950252     3421546492   42880688
  24 23     -384.4765810362    -0.0002296582   0.009373072   0.000625148     3421616809   42880941
  25 24     -384.4767728835    -0.0001918473   0.003062826   0.000296141     3421657330   42882225
  26 25     -384.4768103668    -0.0000374833   0.003105447   0.000199013     3421687931   42882776
  27 26     -384.4768425361    -0.0000321693   0.002963687   0.000162188     3421714138   42883394
  28 27     -384.4768712649    -0.0000287288   0.000496657   0.000160899     3421696629   42884153
  29 28     -384.4768664427     0.0000048223   0.000575553   0.000159186     3421695987   42883985
  30 29     -384.4768720283    -0.0000055857   0.025245717   0.000161100     3421696106   42884195
  31 30     -384.4773795948    -0.0005075665   0.000252121   0.000647721     3421252615   42892844
  32 31     -384.4773869136    -0.0000073189   0.012528205   0.000655273     3421240789   42892959
  33 32     -384.4770458614     0.0003410522   0.003646287   0.000344315     3421550976   42888370
  34 33     -384.4769824255     0.0000634360   0.010316291   0.000278116     3421617020   42887058
  35 34     -384.4768616939     0.0001207316   0.014954138   0.000189337     3421700341   42883905
  36 35     -384.4766577225     0.0002039714   0.010537712   0.000424628     3421598546   42881214
  37 36     -384.4768182751    -0.0001605526   0.003365792   0.000197586     3421707165   42882863
  38 37     -384.4768519014    -0.0000336262   0.001009505   0.000180082     3421713846   42883654
  39 38     -384.4768616291    -0.0000097278   0.000240598   0.000180531     3421709181   42883907
  40 39     -384.4768592974     0.0000023317   0.001774421   0.000180819     3421711591   42883864
  41 40     -384.4768421125     0.0000171849   0.004161601   0.000182689     3421712433   42883456
  42 41     -384.4767983713     0.0000437412   0.001040660   0.000215698     3421668130   42882501
  43 42     -384.4768101506    -0.0000117794   0.001528216   0.000201696     3421680064   42882734
  44 43     -384.4768262932    -0.0000161426   0.000534057   0.000188210     3421708825   42883055
  45 44     -384.4768317066    -0.0000054133   0.001147964   0.000185010     3421703861   42883170
  46 45     -384.4768430747    -0.0000113682   0.000266780   0.000180591     3421714265   42883440
  47 46     -384.4768456862    -0.0000026114   0.010989020   0.000179833     3421717828   42883479
  48 47     -384.4769675459    -0.0001218597   0.006581257   0.000261761     3421636497   42886666
  49 48     -384.4768887502     0.0000787957   0.000999752   0.000189086     3421676746   42884814
  50 49     -384.4768787060     0.0000100442   0.001754207   0.000184057     3421689806   42884418
  51 50     -384.4768615836     0.0000171224   0.000689531   0.000182315     3421708555   42883911
  52 51     -384.4768682696    -0.0000066860   0.007640379   0.000182530     3421701778   42884096
  53 52     -384.4767888262     0.0000794434   0.009361310   0.000235503     3421668177   42882327
  54 53     -384.4768852367    -0.0000964105   0.000885994   0.000188096     3421681795   42884715
  55 54     -384.4768942952    -0.0000090584   0.002224359   0.000193045     3421677212   42884982
  56 55     -384.4768719368     0.0000223584   0.000157564   0.000182600     3421696811   42884239
  57 56     -384.4768704193     0.0000015174   0.008679688   0.000181850     3421700125   42884175
  58 57     -384.4769713659    -0.0001009465   0.002982807   0.000260514     3421623554   42886789
  59 58     -384.4769313200     0.0000400458   0.001864615   0.000224485     3421649308   42885964
  60 59     -384.4769552696    -0.0000239496   0.001260958   0.000251687     3421637406   42886435
  61 60     -384.4769387499     0.0000165197   0.000113868   0.000234714     3421650484   42886127
  62 61     -384.4769400760    -0.0000013261   0.015783376   0.000236126     3421649511   42886145
  63 62     -384.4767693883     0.0001706877   0.014786591   0.000262553     3421653268   42882110
  64 63     -384.4769278220    -0.0001584337   0.001194414   0.000222103     3421657056   42885881
  65 64     -384.4769426372    -0.0000148152   0.000588508   0.000240254     3421644435   42886188
  66 65     -384.4769352095     0.0000074277   0.000084992   0.000231777     3421649632   42886096
  67 66     -384.4769362653    -0.0000010558   0.001028598   0.000233184     3421650668   42886105
  68 67     -384.4769239439     0.0000123214   0.004259733   0.000212583     3421664607   42885747
  69 68     -384.4769809382    -0.0000569943   0.000100079   0.000276574     3421618130   42886984
  70 69     -384.4769823772    -0.0000014390   0.003439055   0.000279230     3421619138   42887026
  71 70     -384.4769349546     0.0000474226   0.009924092   0.000227741     3421648400   42886064
  72 71     -384.4771045671    -0.0001696125   0.023703119   0.000421210     3421502943   42889389
  73 72     -384.4767893228     0.0003152443   0.006399937   0.000240618     3421664261   42882363
  74 73     -384.4766904650     0.0000988578   0.018050388   0.000386551     3421608706   42881339
  75 74     -384.4769097888    -0.0002193238   0.000788954   0.000206967     3421677585   42885420
  76 75     -384.4769012601     0.0000085287   0.000262650   0.000200132     3421684133   42885182
  77 76     -384.4768984918     0.0000027683   0.000232868   0.000197245     3421684899   42885080
  78 77     -384.4768960495     0.0000024423   0.000534186   0.000195947     3421684677   42885027
  79 78     -384.4769017127    -0.0000056633   0.000422637   0.000198266     3421685508   42885189
  80 79     -384.4769062559    -0.0000045431   0.000189008   0.000201985     3421679708   42885352
  81 80     -384.4769042057     0.0000020501   0.000245000   0.000199849     3421681722   42885292
  82 81     -384.4769018950     0.0000023107   0.000844299   0.000192905     3421682391   42885230
  83 82     -384.4768930108     0.0000088842   0.021622873   0.000189044     3421674780   42884940
  84 83     -384.4765665595     0.0003264514   0.020469388   0.000565983     3421557295   42880940
  85 84     -384.4768813397    -0.0003147803   0.001921142   0.000182046     3421687889   42884535
  86 85     -384.4768625384     0.0000188013   0.003839841   0.000175321     3421710758   42883924
  87 86     -384.4768247143     0.0000378241   0.001371105   0.000190711     3421708934   42883029
  88 87     -384.4768385313    -0.0000138169   0.000612857   0.000182540     3421712534   42883335
  89 88     -384.4768324395     0.0000060918   0.001000826   0.000184820     3421708205   42883181
  90 89     -384.4768222331     0.0000102064   0.000903170   0.000190990     3421706503   42882940
  91 90     -384.4768126778     0.0000095554   0.003609717   0.000198005     3421691856   42882782
  92 91     -384.4768492854    -0.0000366076   0.006667053   0.000175232     3421713414   42883563
  93 92     -384.4769170915    -0.0000678061   0.002142849   0.000199772     3421678655   42885553
  94 93     -384.4769426548    -0.0000255633   0.006807965   0.000238937     3421653237   42886167
  95 94     -384.4768684085     0.0000742463   0.000815798   0.000182208     3421705166   42884103
  96 95     -384.4768764231    -0.0000080146   0.000440241   0.000187757     3421695162   42884341
  97 96     -384.4768720859     0.0000043371   0.003951440   0.000186427     3421696247   42884248
  98 97     -384.4769129802    -0.0000408942   0.000063616   0.000210694     3421681992   42885495
  99 98     -384.4769136606    -0.0000006805   0.001152323   0.000212614     3421682208   42885494
 100 99     -384.4769269876    -0.0000133269   0.016452875   0.000224538     3421661189   42885836
 101100     -384.4767446812     0.0001823064   0.010521327   0.000295469     3421620987   42881800
 102101     -384.4768647077    -0.0001200265   0.001799741   0.000181607     3421705581   42883991
 103102     -384.4768823879    -0.0000176802   0.001565050   0.000184873     3421685677   42884558
 104103     -384.4768984272    -0.0000160392   0.002160365   0.000192836     3421676894   42885108
 105104     -384.4768765096     0.0000219175   0.001348560   0.000180916     3421698279   42884321
 106105     -384.4768633489     0.0000131607   0.006874462   0.000176778     3421708584   42883951
 107106     -384.4769369610    -0.0000736121   0.006520188   0.000222854     3421643667   42886104
 108107     -384.4768667539     0.0000702070   0.000027531   0.000178568     3421700942   42884034
 109108     -384.4768664822     0.0000002717   0.001295907   0.000180313     3421700755   42884024
 110109     -384.4768539329     0.0000125493   0.017767442   0.000179621     3421711326   42883742
 111110     -384.4765632134     0.0002907195   0.016852038   0.000562848     3421559101   42880873
 112111     -384.4768450945    -0.0002818811   0.002868994   0.000179227     3421717262   42883479
 113112     -384.4768160531     0.0000290415   0.003458127   0.000196753     3421703720   42882823
 114113     -384.4767755309     0.0000405222   0.004517503   0.000243497     3421649624   42882163
 115114     -384.4768271029    -0.0000515720   0.002878993   0.000188561     3421709368   42883049
 116115     -384.4767957497     0.0000313531   0.009558602   0.000216831     3421666835   42882427
 117116     -384.4768930590    -0.0000973093   0.005240658   0.000184571     3421674059   42884934
 118117     -384.4768415551     0.0000515039   0.015616342   0.000175864     3421715134   42883434
 119118     -384.4765888564     0.0002526987   0.000469287   0.000518654     3421561408   42881008
 120119     -384.4765756981     0.0000131583   0.019070340   0.000538076     3421562242   42880927
 121120     -384.4768704807    -0.0002947826   0.003176639   0.000177434     3421699611   42884168
 122121     -384.4768396362     0.0000308444   0.008753591   0.000182329     3421714190   42883387
 123122     -384.4767320233     0.0001076129   0.005813787   0.000304256     3421621553   42881648
 124123     -384.4768092324    -0.0000772091   0.006736734   0.000204429     3421681338   42882750
 125124     -384.4768765183    -0.0000672859   0.005291509   0.000181813     3421696073   42884339
 126125     -384.4768245795     0.0000519387   0.007475523   0.000189352     3421709392   42883015
 127126     -384.4767284523     0.0000961272   0.001949533   0.000309701     3421615598   42881636
 128127     -384.4766935531     0.0000348992   0.005621102   0.000362311     3421607050   42881323
 129128     -384.4767815254    -0.0000879723   0.005310031   0.000233955     3421651543   42882240
 130129     -384.4766995325     0.0000819929   0.000309530   0.000352879     3421602676   42881394
 131130     -384.4767052934    -0.0000057609   0.000591956   0.000344180     3421603748   42881453
 132131     -384.4767159187    -0.0000106253   0.006705290   0.000328365     3421608963   42881546
 133132     -384.4765606601     0.0001552586   0.011298410   0.000561438     3421555238   42880898
 134133     -384.4767838920    -0.0002232319   0.014917120   0.000230698     3421659561   42882279
 135134     -384.4769430742    -0.0001591822   0.022630999   0.000231386     3421643691   42886191
 136135     -384.4766536889     0.0002893853   0.005289966   0.000422204     3421597253   42881217
 137136     -384.4767508878    -0.0000971988   0.007300683   0.000276710     3421634637   42881836
 138137     -384.4766046404     0.0001462474   0.000518068   0.000495994     3421557909   42881120
 139138     -384.4766180314    -0.0000133910   0.001953563   0.000475790     3421566838   42881130
 140139     -384.4765645511     0.0000534803   0.000780876   0.000555545     3421559017   42880900
 141140     -384.4765408839     0.0000236673   0.000490270   0.000589452     3421539939   42880853
 142141     -384.4765559430    -0.0000150591   0.001793932   0.000567795     3421550232   42880869
 143142     -384.4764982944     0.0000576486   0.003533112   0.000647919     3421517056   42880801
 144143     -384.4763604940     0.0001378004   0.026671691   0.000832988     3421434997   42880827
 145144     -384.4768863940    -0.0005259000   0.009846594   0.000179700     3421679387   42884748
 146145     -384.4770153533    -0.0001289593   0.008822764   0.000319508     3421598328   42887663
 147146     -384.4768968372     0.0001185161   0.005179326   0.000193297     3421677029   42885053
 148147     -384.4768457151     0.0000511220   0.000933314   0.000179260     3421718508   42883495
 149148     -384.4768547712    -0.0000090560   0.000205162   0.000178363     3421710129   42883760
 150149     -384.4768567498    -0.0000019786   0.001061162   0.000178497     3421714425   42883795
 151150     -384.4768669876    -0.0000102378   0.000811069   0.000180470     3421701817   42884057
 152151     -384.4768748835    -0.0000078959   0.002783351   0.000183495     3421696479   42884306
 153152     -384.4768478890     0.0000269945   0.012449972   0.000181986     3421714721   42883560
 154153     -384.4769927184    -0.0001448295   0.000508248   0.000305478     3421615847   42887266
 155154     -384.4770009345    -0.0000082161   0.001781936   0.000316547     3421608721   42887438
 156155     -384.4769733755     0.0000275590   0.008057830   0.000279174     3421621289   42886869
 157156     -384.4771267375    -0.0001533619   0.002154394   0.000457015     3421482009   42889754
 158157     -384.4771812275    -0.0000544900   0.015965086   0.000514092     3421421913   42890519
 159158     -384.4769017568     0.0002794707   0.002003169   0.000192918     3421684148   42885183
 160159     -384.4769242267    -0.0000224699   0.014953039   0.000216507     3421671688   42885713
 161160     -384.4772084965    -0.0002842698   0.037251718   0.000537874     3421414672   42890813
 162161     -384.4766242267     0.0005842699   0.021308634   0.000466136     3421566657   42881138
 163162     -384.4769118794    -0.0002876527   0.001066401   0.000214705     3421676138   42885478
 164163     -384.4769241535    -0.0000122741   0.000605714   0.000218106     3421668828   42885719
 165164     -384.4769312974    -0.0000071439   0.000799821   0.000228624     3421650319   42885959
 166165     -384.4769412795    -0.0000099821   0.002080182   0.000238163     3421647347   42886172
 167166     -384.4769694215    -0.0000281421   0.000175592   0.000272525     3421631882   42886730
 168167     -384.4769719928    -0.0000025713   0.000527634   0.000275449     3421624481   42886799
 169168     -384.4769798315    -0.0000078386   0.004178842   0.000284556     3421625116   42886978
 170169     -384.4769241844     0.0000556471   0.001161235   0.000220819     3421669763   42885725
 171170     -384.4769109277     0.0000132567   0.016643339   0.000207179     3421677314   42885428
 172171     -384.4767184388     0.0001924889   0.016601023   0.000339941     3421608951   42881550
 173172     -384.4769103876    -0.0001919488   0.000523833   0.000208851     3421676339   42885436
 174173     -384.4769163004    -0.0000059128   0.001104288   0.000212648     3421679208   42885520
 175174     -384.4769041451     0.0000121553   0.005366763   0.000199785     3421682578   42885280
 176175     -384.4769711186    -0.0000669735   0.001170270   0.000269072     3421625294   42886778
 177176     -384.4769547111     0.0000164075   0.000198603   0.000248807     3421638720   42886430
 178177     -384.4769520257     0.0000026854   0.000351962   0.000246639     3421645582   42886378
 179178     -384.4769473829     0.0000046428   0.000336459   0.000240686     3421638328   42886316
 180179     -384.4769430109     0.0000043720   0.000108583   0.000236733     3421645684   42886184
 181180     -384.4769444037    -0.0000013927   0.017547601   0.000237263     3421642376   42886238
 182181     -384.4767490531     0.0001953506   0.013901823   0.000291743     3421636414   42881817
 183182     -384.4769017099    -0.0001526568   0.000300583   0.000195534     3421684246   42885213
 184183     -384.4768985353     0.0000031746   0.002689673   0.000197408     3421683537   42885083
 185184     -384.4769286650    -0.0000301297   0.001276659   0.000224147     3421651472   42885894
 186185     -384.4769445998    -0.0000159348   0.007498115   0.000238647     3421641324   42886263
 187186     -384.4770687788    -0.0001241790   0.004647261   0.000375197     3421536314   42888763
 188187     -384.4769848707     0.0000839081   0.001831053   0.000289426     3421622077   42887116
 189188     -384.4770144900    -0.0000296193   0.001126997   0.000331509     3421597463   42887697
 190189     -384.4770348579    -0.0000203679   0.001727976   0.000351193     3421567355   42888185
 191190     -384.4770688421    -0.0000339842   0.019893203   0.000389837     3421541917   42888820
 192191     -384.4768139089     0.0002549332   0.006909683   0.000216413     3421696034   42882880
 193192     -384.4767211176     0.0000927913   0.020398260   0.000340076     3421608296   42881637
 194193     -384.4769592487    -0.0002381311   0.000121572   0.000263117     3421636551   42886512
 195194     -384.4769609204    -0.0000016717   0.001049699   0.000264924     3421636633   42886568
 196195     -384.4769759295    -0.0000150091   0.001168350   0.000282598     3421619020   42886933
 197196     -384.4769592854     0.0000166442   0.000884247   0.000261405     3421635798   42886507
 198197     -384.4769474486     0.0000118367   0.000457247   0.000247630     3421644542   42886308
 199198     -384.4769415576     0.0000058911   0.000370026   0.000240472     3421645219   42886188
 200199     -384.4769369288     0.0000046288   0.001049202   0.000240472     3421651050   42886119

 SCF IS UNCONVERGED, TOO MANY ITERATIONS
     TIME TO FORM FOCK OPERATORS=    3456.9 SECONDS (      17.3 SEC/ITER)
     FOCK TIME ON FIRST ITERATION=      18.0, LAST ITERATION=      17.2
     TIME TO SOLVE SCF EQUATIONS=      57.9 SECONDS (       0.3 SEC/ITER)

 FINAL ROHF ENERGY IS        0.0000000000 AFTER 200 ITERATIONS

          --------------------
          SPIN SZ   =    1.000
          S-SQUARED =    2.000
          --------------------

          ------------
          EIGENVECTORS
          ------------

                      1          2          3          4          5
                  -11.2463   -11.2449   -11.2437   -11.2436   -11.2405
                     A          A          A          A          A   
    1  C  1  S    0.054977   0.000001  -0.012662   0.006281   0.001401
    2  C  1  S    0.000046  -0.000003   0.000101  -0.000060  -0.000004
    3  C  1  S    0.002528   0.000001  -0.000608   0.000284   0.000119
    4  C  1  S   -0.000411  -0.000304   0.000873  -0.000311  -0.000059
    5  C  1  X    0.000086   0.000001  -0.000007  -0.000002   0.000007
    6  C  1  Y    0.000121   0.000004   0.000025  -0.000004   0.000010
    7  C  1  Z    0.000220   0.000003  -0.000003   0.000006  -0.000000
    8  C  1  X   -0.000108  -0.000009  -0.000145   0.000107  -0.000036
    9  C  1  Y   -0.000237  -0.000047  -0.000329  -0.000011  -0.000075
   10  C  1  Z   -0.000402  -0.000048  -0.000354   0.000039  -0.000034
   11  C  1  X    0.000016  -0.000047  -0.000112   0.000045  -0.000133
   12  C  1  Y   -0.000425  -0.000105   0.000143  -0.000194   0.000097
   13  C  1  Z   -0.000512  -0.000141  -0.000043  -0.000099  -0.000081
   14  C  1 XX    0.000052  -0.000001  -0.000014   0.000003   0.000006
   15  C  1 YY    0.000014   0.000003   0.000004   0.000005   0.000009
   16  C  1 ZZ   -0.000067  -0.000002   0.000010  -0.000008  -0.000015
   17  C  1 XY    0.000006   0.000001  -0.000007  -0.000002  -0.000007
   18  C  1 XZ   -0.000092  -0.000001   0.000009  -0.000012  -0.000012
   19  C  1 YZ   -0.000096   0.000001   0.000031  -0.000012  -0.000021
   20  C  1 XX    0.000137   0.000023   0.000160  -0.000132   0.000095
   21  C  1 YY    0.000378  -0.000010  -0.000116   0.000203  -0.000084
   22  C  1 ZZ   -0.000516  -0.000013  -0.000044  -0.000071  -0.000012
   23  C  1 XY   -0.000456  -0.000023  -0.000155   0.000019  -0.000027
   24  C  1 XZ   -0.000164  -0.000003   0.000249  -0.000213  -0.000049
   25  C  1 YZ   -0.000213  -0.000044  -0.000225   0.000146  -0.000133
   26  C  1 XXX   0.000115   0.000001  -0.000034   0.000010   0.000023
   27  C  1 YYY   0.000156   0.000001  -0.000073   0.000033   0.000038
   28  C  1 ZZZ  -0.000124  -0.000001   0.000059  -0.000030  -0.000002
   29  C  1 XXY   0.000038   0.000000   0.000036  -0.000023  -0.000011
   30  C  1 XXZ   0.000127   0.000002  -0.000050   0.000020  -0.000007
   31  C  1 YYX  -0.000028   0.000001   0.000038   0.000004   0.000004
   32  C  1 YYZ   0.000039  -0.000001  -0.000030   0.000020   0.000011
   33  C  1 ZZX  -0.000126  -0.000002   0.000007  -0.000018  -0.000034
   34  C  1 ZZY  -0.000247  -0.000002   0.000063  -0.000022  -0.000039
   35  C  1 XYZ  -0.000180  -0.000002   0.000078  -0.000040  -0.000038
   36  C  2  S    0.954974  -0.000110  -0.183570   0.092942   0.011841
   37  C  2  S    0.001738  -0.000083  -0.000179   0.000187   0.000035
   38  C  2  S    0.040427  -0.000026  -0.007485   0.003860   0.000445
   39  C  2  S    0.007109  -0.000825  -0.003460   0.001072  -0.001403
   40  C  2  X    0.000198  -0.000002  -0.000127   0.000046   0.000013
   41  C  2  Y    0.000029   0.000009   0.000185  -0.000048   0.000012
   42  C  2  Z    0.000107  -0.000001   0.000070  -0.000041   0.000046
   43  C  2  X   -0.001213   0.000097   0.000437  -0.000062   0.000103
   44  C  2  Y    0.001281  -0.000238  -0.000885   0.000132  -0.000452
   45  C  2  Z   -0.000273  -0.000061  -0.000228   0.000200  -0.000521
   46  C  2  X   -0.000826   0.000027   0.001111  -0.000199   0.000508
   47  C  2  Y    0.001436  -0.000447  -0.001477   0.000215  -0.000780
   48  C  2  Z    0.000307  -0.000327   0.000074   0.000073   0.000089
   49  C  2 XX   -0.000177   0.000001   0.000094  -0.000041  -0.000015
   50  C  2 YY    0.000084  -0.000005  -0.000086   0.000031   0.000032
   51  C  2 ZZ    0.000093   0.000004  -0.000009   0.000010  -0.000017
   52  C  2 XY   -0.000383   0.000008   0.000164  -0.000073  -0.000009
   53  C  2 XZ    0.000361   0.000003  -0.000091   0.000050   0.000032
   54  C  2 YZ    0.000377  -0.000005  -0.000147   0.000052   0.000030
   55  C  2 XX   -0.000318   0.000027   0.000161  -0.000101   0.000151
   56  C  2 YY    0.000371  -0.000121  -0.000780   0.000202   0.000032
   57  C  2 ZZ   -0.000053   0.000095   0.000620  -0.000101  -0.000183
   58  C  2 XY    0.000256   0.000024   0.000555  -0.000019  -0.000308
   59  C  2 XZ   -0.000385   0.000081   0.000594  -0.000323   0.000145
   60  C  2 YZ    0.000678  -0.000047  -0.000338   0.000449  -0.000447
   61  C  2 XXX   0.000143   0.000003  -0.000172   0.000070   0.000010
   62  C  2 YYY   0.000304  -0.000005  -0.000173   0.000072   0.000090
   63  C  2 ZZZ  -0.000325   0.000007   0.000224  -0.000133  -0.000071
   64  C  2 XXY  -0.000135  -0.000003   0.000109  -0.000045   0.000005
   65  C  2 XXZ   0.000211  -0.000000  -0.000019   0.000032   0.000036
   66  C  2 YYX  -0.000109  -0.000001   0.000234  -0.000077  -0.000041
   67  C  2 YYZ   0.000224  -0.000009  -0.000281   0.000147   0.000059
   68  C  2 ZZX  -0.000084  -0.000003  -0.000004  -0.000017   0.000028
   69  C  2 ZZY  -0.000273   0.000010   0.000123  -0.000051  -0.000126
   70  C  2 XYZ  -0.000418   0.000002   0.000251  -0.000128  -0.000064
   71  C  3  S    0.205783   0.000413   0.837117  -0.444339  -0.115257
   72  C  3  S    0.000346  -0.000107   0.001160  -0.000615   0.000029
   73  C  3  S    0.008923   0.000010   0.035368  -0.018785  -0.004786
   74  C  3  S    0.002864  -0.003164   0.008957  -0.001724  -0.001332
   75  C  3  X    0.000081  -0.000009  -0.000177   0.000025   0.000027
   76  C  3  Y   -0.000232   0.000010   0.000284  -0.000052  -0.000004
   77  C  3  Z   -0.000122   0.000002   0.000145  -0.000111   0.000230
   78  C  3  X   -0.000427   0.000124   0.000491   0.000241   0.000046
   79  C  3  Y    0.000942  -0.000212  -0.001269  -0.000105   0.000019
   80  C  3  Z    0.000566  -0.000082  -0.000249   0.000342   0.000029
   81  C  3  X   -0.001845   0.001077  -0.000926  -0.000144   0.000276
   82  C  3  Y    0.003369  -0.001763   0.000281   0.000365  -0.001105
   83  C  3  Z    0.001651  -0.000803  -0.001168  -0.000048  -0.002821
   84  C  3 XX    0.000009   0.000001  -0.000299   0.000188   0.000079
   85  C  3 YY    0.000010  -0.000004   0.000192  -0.000077  -0.000072
   86  C  3 ZZ   -0.000019   0.000003   0.000107  -0.000111  -0.000007
   87  C  3 XY   -0.000033  -0.000001  -0.000423   0.000240   0.000153
   88  C  3 XZ   -0.000034   0.000002   0.000047  -0.000046  -0.000014
   89  C  3 YZ   -0.000005  -0.000005   0.000112  -0.000054  -0.000006
   90  C  3 XX   -0.000135   0.000048  -0.000414  -0.000325   0.000232
   91  C  3 YY   -0.001463   0.000202  -0.000220  -0.000663   0.000926
   92  C  3 ZZ    0.001599  -0.000250   0.000634   0.000987  -0.001158
   93  C  3 XY    0.000648  -0.000014   0.000296   0.000343  -0.000842
   94  C  3 XZ    0.001265  -0.000273  -0.000058   0.000169  -0.000116
   95  C  3 YZ   -0.001580   0.000402   0.000310   0.000018  -0.000056
   96  C  3 XXX   0.000155  -0.000006  -0.000108   0.000014  -0.000013
   97  C  3 YYY   0.000098  -0.000002  -0.000156   0.000072   0.000064
   98  C  3 ZZZ  -0.000043  -0.000002   0.000397  -0.000156  -0.000382
   99  C  3 XXY  -0.000112   0.000001   0.000101  -0.000070   0.000025
  100  C  3 XXZ  -0.000108   0.000003  -0.000102   0.000033   0.000206
  101  C  3 YYX  -0.000168   0.000006   0.000144   0.000001  -0.000026
  102  C  3 YYZ   0.000167  -0.000001  -0.000431   0.000176   0.000307
  103  C  3 ZZX  -0.000039   0.000002   0.000001  -0.000020   0.000043
  104  C  3 ZZY  -0.000019   0.000002   0.000108  -0.000027  -0.000111
  105  C  3 XYZ  -0.000102  -0.000005   0.000303  -0.000173  -0.000122
  106  C  4  S    0.008899   0.002497   0.109924   0.085440  -0.017241
  107  C  4  S    0.000173  -0.000023   0.000204  -0.000396  -0.000058
  108  C  4  S    0.000433   0.000146   0.004915   0.003707  -0.000809
  109  C  4  S   -0.003558   0.002798  -0.005210  -0.003104   0.001783
  110  C  4  X    0.000042  -0.000005   0.000020  -0.000177  -0.000005
  111  C  4  Y   -0.000095   0.000022  -0.000024   0.000262   0.000020
  112  C  4  Z    0.000013   0.000023   0.000108   0.000087   0.000067
  113  C  4  X   -0.000279   0.000066   0.000673   0.000979  -0.000199
  114  C  4  Y    0.000573  -0.000185  -0.000973  -0.001441   0.000141
  115  C  4  Z   -0.000168  -0.000228  -0.000121  -0.000890  -0.001027
  116  C  4  X   -0.000799   0.000391  -0.000384   0.000631  -0.000750
  117  C  4  Y    0.000869  -0.000606   0.000463  -0.001171   0.001154
  118  C  4  Z   -0.002044   0.001512  -0.002202  -0.001462   0.000316
  119  C  4 XX    0.000019  -0.000002   0.000046   0.000029  -0.000005
  120  C  4 YY    0.000038  -0.000017   0.000002  -0.000047  -0.000016
  121  C  4 ZZ   -0.000057   0.000020  -0.000048   0.000017   0.000021
  122  C  4 XY   -0.000028   0.000037   0.000059   0.000079   0.000016
  123  C  4 XZ   -0.000020   0.000015   0.000020   0.000071  -0.000002
  124  C  4 YZ    0.000010  -0.000011  -0.000060  -0.000108   0.000002
  125  C  4 XX   -0.000472   0.000212  -0.000321  -0.000220   0.000030
  126  C  4 YY   -0.001168   0.000263  -0.000887  -0.000819   0.000324
  127  C  4 ZZ    0.001640  -0.000475   0.001208   0.001039  -0.000354
  128  C  4 XY    0.000878  -0.000329   0.000799   0.000672  -0.000365
  129  C  4 XZ    0.000154   0.000123   0.000250   0.000966  -0.000041
  130  C  4 YZ    0.000142  -0.000359  -0.000166  -0.001284   0.000046
  131  C  4 XXX   0.000056  -0.000032   0.000004  -0.000155  -0.000000
  132  C  4 YYY   0.000032  -0.000003  -0.000031   0.000057  -0.000038
  133  C  4 ZZZ   0.000004   0.000005   0.000248  -0.000024  -0.000117
  134  C  4 XXY   0.000012   0.000010   0.000028  -0.000044  -0.000038
  135  C  4 XXZ   0.000006   0.000012  -0.000067   0.000047   0.000054
  136  C  4 YYX  -0.000081   0.000038  -0.000025   0.000214   0.000080
  137  C  4 YYZ  -0.000011  -0.000019  -0.000265  -0.000015   0.000104
  138  C  4 ZZX   0.000006   0.000005   0.000019  -0.000006  -0.000080
  139  C  4 ZZY  -0.000054  -0.000007   0.000013  -0.000032   0.000089
  140  C  4 XYZ   0.000035   0.000008   0.000278   0.000064  -0.000048
  141  H  5  S   -0.000030   0.000004   0.000047  -0.000042  -0.000002
  142  H  5  S   -0.001522   0.000306  -0.000897  -0.001248  -0.000538
  143  H  5  S   -0.000518   0.000295  -0.000579  -0.000349  -0.000197
  144  H  5  X   -0.000001   0.000003  -0.000009   0.000018   0.000005
  145  H  5  Y    0.000009  -0.000007   0.000021  -0.000028  -0.000009
  146  H  5  Z   -0.000013   0.000002   0.000024  -0.000070  -0.000051
  147  H  5  X    0.000046   0.000024  -0.000023   0.000189   0.000026
  148  H  5  Y   -0.000087  -0.000054  -0.000021  -0.000340  -0.000082
  149  H  5  Z   -0.000499   0.000028  -0.000257  -0.000430  -0.000343
  150  H  5 XX   -0.000007   0.000005  -0.000012   0.000016   0.000039
  151  H  5 YY    0.000019   0.000004  -0.000009   0.000030   0.000027
  152  H  5 ZZ   -0.000013  -0.000009   0.000020  -0.000045  -0.000067
  153  H  5 XY   -0.000021   0.000010  -0.000001  -0.000038   0.000004
  154  H  5 XZ    0.000011   0.000001  -0.000021   0.000047   0.000019
  155  H  5 YZ    0.000003  -0.000013   0.000029  -0.000073  -0.000039
  156  C  6  S    0.012935   0.000923   0.100988  -0.056985   0.944810
  157  C  6  S   -0.000032   0.000065   0.000178  -0.000272   0.001737
  158  C  6  S    0.000579   0.000100   0.004413  -0.002531   0.040176
  159  C  6  S   -0.003298   0.002362  -0.002172  -0.000570   0.009265
  160  C  6  X    0.000029  -0.000003   0.000013  -0.000013   0.000195
  161  C  6  Y   -0.000046   0.000022  -0.000036   0.000034  -0.000231
  162  C  6  Z   -0.000101  -0.000006  -0.000199   0.000040  -0.000198
  163  C  6  X   -0.000222  -0.000032   0.000038   0.000249  -0.001661
  164  C  6  Y    0.000431  -0.000062  -0.000043  -0.000316   0.002083
  165  C  6  Z    0.000929   0.000139   0.000371   0.000817   0.000616
  166  C  6  X    0.000762  -0.000619   0.000812   0.000327  -0.001519
  167  C  6  Y   -0.000689   0.000781  -0.000856  -0.000471   0.001983
  168  C  6  Z    0.001868  -0.001248   0.000080  -0.000484  -0.001598
  169  C  6 XX    0.000017   0.000012   0.000008   0.000007  -0.000264
  170  C  6 YY   -0.000014   0.000004   0.000008   0.000006   0.000051
  171  C  6 ZZ   -0.000002  -0.000015  -0.000016  -0.000013   0.000213
  172  C  6 XY    0.000007   0.000009  -0.000008   0.000004  -0.000647
  173  C  6 XZ   -0.000036   0.000011  -0.000021   0.000006  -0.000069
  174  C  6 YZ    0.000022  -0.000029   0.000040  -0.000019   0.000166
  175  C  6 XX    0.000260  -0.000143   0.000352   0.000006  -0.000135
  176  C  6 YY    0.000659  -0.000353   0.000573   0.000059  -0.000328
  177  C  6 ZZ   -0.000919   0.000497  -0.000924  -0.000065   0.000463
  178  C  6 XY   -0.000479   0.000295  -0.000534  -0.000094   0.000323
  179  C  6 XZ    0.000664  -0.000283   0.000195   0.000195  -0.000887
  180  C  6 YZ   -0.000936   0.000454  -0.000442  -0.000200   0.001170
  181  C  6 XXX   0.000015  -0.000015  -0.000012  -0.000014   0.000039
  182  C  6 YYY  -0.000048   0.000006  -0.000050   0.000024  -0.000003
  183  C  6 ZZZ   0.000046  -0.000001   0.000250  -0.000140  -0.000533
  184  C  6 XXY  -0.000013  -0.000001  -0.000010  -0.000012   0.000004
  185  C  6 XXZ  -0.000056   0.000023  -0.000157   0.000071   0.000237
  186  C  6 YYX   0.000009   0.000022   0.000012   0.000035  -0.000013
  187  C  6 YYZ  -0.000005  -0.000022  -0.000179   0.000116   0.000477
  188  C  6 ZZX  -0.000029  -0.000003   0.000005  -0.000016  -0.000039
  189  C  6 ZZY   0.000078  -0.000007   0.000076  -0.000021  -0.000000
  190  C  6 XYZ  -0.000033   0.000029   0.000045  -0.000074  -0.000458
  191  H  7  S   -0.000023   0.000003   0.000050  -0.000038   0.000108
  192  H  7  S   -0.001098   0.000591  -0.000795  -0.000788   0.002191
  193  H  7  S   -0.000440   0.000315  -0.000259  -0.000146   0.000324
  194  H  7  X    0.000009  -0.000004  -0.000005   0.000027   0.000148
[...]
   1472   -7.08994   10.62489   -0.04902        -7.291960       7.300617       0.008657
   1473   -5.95215    9.83664   -1.30703        -7.365559       7.373264       0.007705
   1474   -8.34795    9.48710    0.73923        -7.575987       7.583028       0.007042
   1475   -7.43284    8.92153   -0.74146        -7.486175       7.493130       0.006956
   1476   -8.32946    8.00641    0.18509        -7.792592       7.797245       0.004653
   1477   -7.43284    7.09130   -0.74146        -8.011919       8.016169       0.004249
   1478   -6.08977    8.00641   -1.66733        -7.797724       7.804656       0.006932
   1479   -8.70825    9.62472    2.56946        -8.112905       8.119408       0.006504
   1480   -8.91352    8.00641    1.65434        -8.128164       8.131114       0.002950
   1481   -8.34795    6.52573    0.73923        -8.381406       8.381775       0.000369
   1482    0.66854   10.39267    7.52223        -8.913064       8.902682      -0.010382
   1483   -0.48965   11.51344    6.37834        -8.798251       8.790942      -0.007310
   1484   -0.19701    9.96406    9.65144        -8.946168       8.935004      -0.011164
   1485    0.66854   10.39267    5.23445        -9.157444       9.147529      -0.009915
   1486    1.82588    8.71384    6.37834        -9.565511       9.552022      -0.013490
   1487   -7.60875    2.98924    5.23445       -10.202336      10.188431      -0.013905
   1488   -1.19455   11.95006    8.62343        -8.308121       8.299102      -0.009019
   1489   -2.35273   13.07084    7.47954        -7.959558       7.955662      -0.003896
   1490   -2.06009   11.52145   10.75264        -8.069664       8.057167      -0.012497
   1491   -3.04541   13.09395    9.33040        -7.682580       7.675341      -0.007239
   1492   -1.19455   11.95006    6.33565        -8.713056       8.707637      -0.005419
   1493   -5.33320   13.54433    9.50243        -7.388357       7.385274      -0.003083
   1494  -10.17880   10.09920    5.19175        -7.705609       7.706599       0.000990
   1495  -10.15569    8.24834    4.49908        -8.145081       8.141436      -0.003645
   1496   -9.03491    7.10445    3.34090        -8.963335       8.960086      -0.003250
   1497  -10.17880    6.39749    5.19175        -8.493270       8.483388      -0.009882
   1498   -3.41317   13.79946    6.37994        -7.568750       7.570134       0.001384
   1499   -3.96731   13.81796    7.86063        -7.499332       7.498288      -0.001045
   1500   -2.48662   12.90284    5.46483        -8.185765       8.186495       0.000730
   1501   -3.96731   13.81796    4.89926        -7.474113       7.479077       0.004965
   1502   -3.17906   12.55995    3.76146        -8.293033       8.298322       0.005288
   1503   -4.88243   13.25239    3.41857        -7.568072       7.576562       0.008490
   1504   -4.88243   14.38353    6.37994        -7.118985       7.122905       0.003920
   1505   -6.71266   14.38353    6.37994        -6.868769       6.874638       0.005870
   1506   -8.18191   13.79946    6.37994        -6.852018       6.858620       0.006602
   1507   -5.79754   14.17826    7.99825        -7.119980       7.122130       0.002151
   1508   -7.62777   13.81796    7.86063        -7.003638       7.008611       0.004973
   1509   -7.62777   13.81796    4.89926        -6.877609       6.885371       0.007762
   1510   -5.79754   14.17826    4.76163        -7.037735       7.044935       0.007200
   1511   -6.71266   13.25239    3.41857        -7.208330       7.217663       0.009333
   1512   -9.10846   12.90284    5.46483        -6.952055       6.958777       0.006722
   1513   -8.41602   12.55995    3.76146        -7.133645       7.141873       0.008228
   1514   -7.27823   11.77170    2.50346        -7.689258       7.700340       0.011082
   1515   -9.67403   11.42216    4.54971        -7.298741       7.303966       0.005225
   1516   -8.75891   10.85659    3.06903        -7.688140       7.695661       0.007521
   1517   -9.65553    9.94147    3.99557        -7.840678       7.843576       0.002898
   1518   -9.10846   12.90284    7.29506        -7.067014       7.073290       0.006276
   1519  -10.03433   11.55978    6.37994        -7.299169       7.303583       0.004414
   1520   -2.85363    6.66960   13.88071        -7.978378       7.979805       0.001427
   1521   -6.55535    6.66960   15.29464        -6.770026       6.771996       0.001970
   1522   -4.53246    7.81349   15.03805        -7.042898       7.041114      -0.001784
   1523   -2.85363    8.95739   13.88071        -7.511440       7.504946      -0.006494
   1524   -6.55535    8.95739   15.29464        -6.536995       6.535664      -0.001331
   1525   -4.70449   10.10128   14.58767        -6.823852       6.818236      -0.005615
   1526   -6.55535   10.79396   14.56455        -6.494287       6.491572      -0.002715
   1527   -1.70974    9.66435   12.02985        -8.304556       8.293429      -0.011127
   1528   -3.28225   11.08660   13.01516        -7.309720       7.299560      -0.010160
   1529   -4.26756   12.65910   11.59292        -7.268012       7.258819      -0.009193
   1530   -5.41145   11.95214   13.44378        -6.743413       6.737391      -0.006022
   1531  -11.37784    7.81349    6.76160        -7.573079       7.566604      -0.006475
   1532  -12.10792    7.81349    8.59817        -6.973058       6.970189      -0.002869
   1533   -9.53581    2.99100    9.74206        -7.890968       7.886208      -0.004760
   1534  -10.69399    4.11178   10.88596        -7.143953       7.141445      -0.002507
   1535  -11.40096    5.96264   12.02985        -6.622865       6.623128       0.000263
   1536  -10.69399    4.11178    8.59817        -7.709747       7.701743      -0.008005
   1537  -11.85134    5.79061    9.74206        -6.972928       6.968901      -0.004027
   1538  -11.40096    5.96264    7.45428        -7.593402       7.584675      -0.008727
   1539   -8.84313    2.96788    7.89121        -8.856869       8.846634      -0.010236
   1540   -9.82845    4.54039    6.46896        -8.703999       8.691044      -0.012955
   1541  -10.25706    6.66960   13.88071        -6.444440       6.446994       0.002554
   1542   -8.57824    7.81349   15.03805        -6.404996       6.406862       0.001867
   1543   -6.25431    3.65141   14.66624        -6.916657       6.922504       0.005847
   1544   -4.77363    4.20555   14.68474        -7.216546       7.222856       0.006310
   1545   -6.25431    5.12066   15.25031        -6.772378       6.776700       0.004322
   1546   -4.63600    6.03578   15.04504        -7.138464       7.141290       0.002826
   1547   -5.33920    2.72486   13.76962        -7.426699       7.433588       0.006890
   1548   -8.63869    2.17779   10.80825        -7.705669       7.704918      -0.000751
   1549   -9.56523    3.07441   11.72336        -7.179544       7.179944       0.000400
   1550   -8.08454    2.15929    9.32756        -8.602358       8.597348      -0.005010
   1551   -7.16943    1.59372   10.80825        -8.171982       8.172044       0.000062
   1552   -9.21569    5.12066   14.11917        -6.640125       6.643365       0.003240
   1553   -8.87280    3.41730   13.42673        -6.805754       6.809202       0.003449
   1554   -8.08454    2.15929   12.28894        -7.289044       7.291843       0.002798
   1555   -7.73500    4.20555   14.68474        -6.669624       6.674265       0.004641
   1556   -7.16943    2.72486   13.76962        -7.004818       7.010065       0.005247
   1557   -6.25431    1.79899   12.42656        -7.726567       7.731036       0.004469
   1558   -7.87262    6.03578   15.04504        -6.628474       6.631630       0.003155
   1559   -8.08422   10.00218   14.80253        -6.308442       6.309179       0.000736
   1560   -8.08422   11.47144   14.21846        -6.170130       6.170969       0.000839
   1561   -7.16911   12.39798   13.32184        -6.401654       6.400480      -0.001174
   1562   -7.16911   13.52912   10.36047        -6.887685       6.888244       0.000558
   1563   -8.99934   13.52912   10.36047        -6.375339       6.379526       0.004187
   1564  -10.46859   12.94506   10.36047        -6.124207       6.129695       0.005489
   1565   -8.08422   13.32386   11.97878        -6.294784       6.296490       0.001706
   1566   -9.91445   12.96355   11.84116        -5.974655       5.979365       0.004710
   1567   -8.99934   12.39798   13.32184        -5.990638       5.993556       0.002918
   1568   -9.91445   12.96355    8.87978        -6.571277       6.576852       0.005575
   1569   -8.08422   13.32386    8.74216        -7.110132       7.114917       0.004784
   1570  -11.39514   12.04844    9.44536        -6.225818       6.231120       0.005302
   1571  -10.70270   11.70555    7.74199        -6.871826       6.876329       0.004503
   1572  -11.96071   10.56775    8.53024        -6.519693       6.522680       0.002987
   1573  -11.04560   10.00218    7.04956        -7.339011       7.339044       0.000033
   1574  -11.94222    9.08706    7.97610        -6.943950       6.943043      -0.000907
   1575   -9.56491   10.91729   14.23696        -5.939174       5.942468       0.003294
   1576  -10.70270   11.70555   12.97895        -5.809265       5.814267       0.005002
   1577  -11.39514   12.04844   11.27559        -5.899376       5.905037       0.005661
   1578  -11.04560   10.00218   13.67139        -5.865046       5.869561       0.004515
   1579  -11.96071   10.56775   12.19070        -5.841916       5.847091       0.005175
   1580  -11.94222    9.08706   12.74484        -5.959258       5.963436       0.004178
   1581  -12.52628    9.08706   11.27559        -6.081141       6.084609       0.003468
   1582  -12.32102   10.70537   10.36047        -6.050086       6.054722       0.004636
   1583  -12.52628    9.08706    9.44536        -6.427172       6.428718       0.001545
   1584  -11.96071    7.60638   12.19070        -6.274789       6.277161       0.002372
   1585  -12.32102    7.46875   10.36047        -6.571558       6.571467      -0.000091
   1586  -11.04560    8.17195   13.67139        -6.131178       6.134676       0.003499
   1587   -9.70253    9.08706   14.59726        -6.125361       6.128388       0.003027
   1588    2.39249   -6.31874   -0.16698        -6.054337       6.060376       0.006038
   1589    3.31903   -5.42212    0.74814        -6.413635       6.419581       0.005945
   1590    3.88460   -3.94144    1.66325        -7.132228       7.138553       0.006325
   1591    1.83834   -6.33724    1.31371        -6.368128       6.373701       0.005573
   1592    2.62660   -5.07923    2.45150        -7.019140       7.025512       0.006373
   1593    0.92323   -5.77167    2.79439        -6.991163       6.994573       0.003410
   1594    4.45017   -2.46075   -1.08209        -6.868831       6.867697      -0.001134
   1595    3.86611   -2.46075   -2.55135        -6.570090       6.568222      -0.001868
   1596    3.31903   -5.42212   -1.08209        -6.059372       6.064547       0.005175
   1597    3.88460   -3.94144   -1.99721        -6.241877       6.244132       0.002255
   1598    4.24491   -4.07906   -0.16698        -6.555346       6.559125       0.003778
   1599    0.00811   -4.84512   -4.02497        -5.944219       5.947901       0.003682
   1600    1.48880   -4.29098   -4.04347        -5.972070       5.974853       0.002784
   1601    2.96949   -3.37586   -3.47789        -6.191804       6.192491       0.000687
   1602    0.92323   -5.77167   -3.12835        -5.805529       5.810452       0.004923
   1603    2.62660   -5.07923   -2.78546        -5.906521       5.910712       0.004191
   1604    1.83834   -6.33724   -1.64767        -5.843712       5.849520       0.005808
   1605    0.00811   -3.37586   -4.60904        -6.227164       6.228821       0.001657
   1606   -1.47257   -4.29098   -4.04347        -6.192370       6.195432       0.003062
   1607   -2.37626   -6.31874   -0.16698        -6.388099       6.389478       0.001379
   1608   -3.30280   -5.42212   -1.08209        -6.558821       6.559452       0.000631
   1609   -0.90700   -5.77167   -3.12835        -5.922337       5.926670       0.004334
   1610   -1.82211   -6.33724   -1.64767        -6.079068       6.082561       0.003493
   1611   -2.61037   -5.07923   -2.78546        -6.281665       6.284462       0.002797
   1612   -0.90700   -6.90281   -0.16698        -6.121595       6.125367       0.003772
   1613    0.00811   -6.69754   -1.78529        -5.852686       5.857963       0.005277
   1614    0.92323   -6.90281   -0.16698        -6.003146       6.008706       0.005560
   1615   -1.82211   -6.33724    1.31371        -6.646125       6.646312       0.000187
   1616   -0.90700   -5.77167    2.79439        -7.156129       7.155161      -0.000968
   1617    0.00811   -6.69754    1.45133        -6.421092       6.424536       0.003444
   1618   -2.36250    2.59667   -4.46601        -7.460046       7.464705       0.004659
   1619   -2.36250    1.12741   -5.05008        -6.971134       6.974053       0.002919
   1620   -2.36250   -0.70282   -5.05008        -6.709996       6.712180       0.002184
   1621   -4.98098    2.83078   -3.22650        -7.808076       7.816301       0.008225
   1622   -3.84319    2.04253   -4.48451        -7.201754       7.208074       0.006319
   1623   -6.23899    1.69298   -2.43825        -7.670872       7.676393       0.005521
   1624   -5.32388    1.12741   -3.91893        -7.071408       7.077681       0.006273
   1625   -6.22050    0.21230   -2.99239        -7.098180       7.103097       0.004917
   1626   -5.32388   -0.70282   -3.91893        -6.738170       6.742886       0.004716
   1627   -3.98081    0.21230   -4.84481        -6.744256       6.749015       0.004759
   1628   -3.84319   -1.61793   -4.48451        -6.597946       6.601491       0.003546
   1629   -6.22050    0.21230    1.77635        -9.343339       9.335546      -0.007793
   1630   -6.80456    0.21230    0.30710        -8.363585       8.361482      -0.002103
   1631   -6.59929    1.83061   -0.60802        -8.575047       8.576081       0.001034
   1632   -6.80456    0.21230   -1.52313        -7.554457       7.557124       0.002667
   1633   -5.67342   -2.74908   -1.52313        -7.049490       7.049724       0.000234
   1634   -6.59929   -1.40601   -0.60802        -7.506704       7.506181      -0.000522
   1635   -6.23899   -1.26839   -2.43825        -6.975505       6.978517       0.003012
   1636   -4.98098   -2.40618   -3.22650        -6.704005       6.706867       0.002862
   1637    1.67032   -2.81651    7.56160        -7.968375       7.977078       0.008702
   1638    3.15100   -2.26237    7.58010        -7.683021       7.693610       0.010589
   1639    4.63169   -1.34725    7.01453        -7.495690       7.505282       0.009592
   1640    5.52831   -0.43214    6.08798        -7.466638       7.473805       0.007167
   1641    4.05469   -4.29013    3.70361        -6.896094       6.903069       0.006975
   1642    4.98123   -3.39351    4.61873        -6.837193       6.844671       0.007478
   1643    5.54681   -1.91283    5.53384        -7.037795       7.045479       0.007684
   1644    3.50055   -4.30863    5.18430        -6.969998       6.977187       0.007189
   1645    4.28880   -3.05062    6.32209        -7.077031       7.085716       0.008685
   1646    2.58543   -3.74305    6.66498        -7.338351       7.345828       0.007477
   1647    5.54681    1.04855    5.53384        -7.937005       7.940885       0.003880
   1648    5.90711    1.18617    3.70361        -7.790620       7.790821       0.000200
   1649    6.11238   -0.43214    4.61873        -7.258011       7.262908       0.004898
   1650    6.11238   -0.43214    2.78850        -7.268712       7.270530       0.001818
   1651    4.98123   -3.39351    2.78850        -6.902794       6.908808       0.006014
   1652    5.54681   -1.91283    1.87338        -7.118802       7.121513       0.002711
   1653    5.90711   -2.05045    3.70361        -6.925760       6.931393       0.005633
   1654    3.50055   -4.30863    2.22292        -7.148761       7.155781       0.007020
   1655    2.58543   -4.87420    3.70361        -7.139609       7.145616       0.006007
   1656    0.75520   -3.74305    6.66498        -7.884859       7.888837       0.003979
   1657    1.67032   -4.66893    5.32192        -7.342979       7.347474       0.004495

 NET CHARGES:
 -------------------------------------
 ATOM                CHARGE    E.S.D.
 -------------------------------------
 C                  -0.4964    0.0963
 C                  -0.1097    0.1324
 C                   0.1708    0.2433
 C                  -0.1296    0.2690
 H                   0.1202    0.0165
 C                  -0.2300    0.2738
 H                   0.1406    0.0172
 C                  -0.1696    0.2666
 H                   0.1274    0.0164
 C                  -0.2536    0.2501
 H                   0.1454    0.0166
 C                   0.2138    0.2093
 C                  -0.1164    0.1300
 H                   0.1347    0.0115
 C                  -0.5014    0.1035
 H                   0.2142    0.0102
 H                   0.1949    0.0098
 H                   0.1951    0.0095
 H                   0.2116    0.0097
 H                   0.1379    0.0116
 -------------------------------------

 RMS DEVIATION IS            1.418 KCAL/MOLE
 RELATIVE RMS DEVIATION IS  24.112 %

 MULTIPOLE MOMENTS:
 ---------------------------------------------------------
 STATUS  ACTUAL VALUE       QUANTITY        FITTED VALUE 
 ---------------------------------------------------------
 FIXED       0.0000       TOTAL CHARGE        -0.0000
             0.4301 D    DIPOLE MOMENT         0.2633 D
 FREE       -0.3526 D          DX             -0.2227 D
 FREE       -0.2463 D          DY             -0.1398 D
 FREE       -0.0018 D          DZ             -0.0134 D
 FREE        0.0000 BU         QXX            -3.4771 BU
 FREE        0.0000 BU         QYY             1.2962 BU
 FREE        0.0000 BU         QZZ             2.1809 BU
 FREE        0.0000 BU         QXY            -7.0031 BU
 FREE        0.0000 BU         QXZ             1.6878 BU
 FREE        0.0000 BU         QYZ            -1.7386 BU
 ---------------------------------------------------------
 ...... END OF PROPERTY EVALUATION ......
 CPU     0: STEP CPU TIME=     1.88 TOTAL CPU TIME=     3517.7 (   58.6 MIN)
 TOTAL WALL CLOCK TIME=     3524.9 SECONDS, CPU UTILIZATION IS  99.80%
               2402100  WORDS OF DYNAMIC MEMORY USED
 EXECUTION OF GAMESS TERMINATED NORMALLY Mon Jun 22 17:18:53 2020
 DDI: 263640 bytes (0.3 MB / 0 MWords) used by master data server.

 ----------------------------------------
 CPU timing information for all processes
 ========================================
 0: 3500.310 + 17.557 = 3517.867
 1: 3501.125 + 21.215 = 3522.340
 2: 3503.304 + 21.75 = 3524.379
 3: 3502.201 + 21.110 = 3523.312
 4: 3503.595 + 20.746 = 3524.342
 5: 3501.257 + 21.424 = 3522.682
 6: 3503.691 + 20.650 = 3524.341
 7: 3500.18 + 23.214 = 3523.232
 8: 939.80 + 2585.612 = 3524.692
 9: 931.924 + 2586.16 = 3517.940
 10: 937.358 + 2586.324 = 3523.683
 11: 934.541 + 2587.692 = 3522.233
 12: 938.133 + 2585.622 = 3523.756
 13: 935.550 + 2585.201 = 3520.751
 14: 936.136 + 2584.940 = 3521.76
 15: 932.738 + 2589.152 = 3521.890
 ----------------------------------------
----- accounting info -----
Files used on the master node m3i009 were:
ls -lF /scratch/sn29/tmason1/14828322/spec.*
-rw-rw-r--+ 1 tmason1 sn29  3658483 Jun 22 17:18 /scratch/sn29/tmason1/14828322/spec.dat
-rw-rw-r--+ 1 tmason1 sn29     1498 Jun 22 16:20 /scratch/sn29/tmason1/14828322/spec.F05
-rw-rw-r--+ 1 tmason1 sn29 23558400 Jun 22 17:18 /scratch/sn29/tmason1/14828322/spec.F10
-rw-rw-r--+ 1 tmason1 sn29        0 Jun 22 16:20 /scratch/sn29/tmason1/14828322/spec.nodes.mpd
Mon Jun 22 17:18:55 AEST 2020
35502.906u 20858.311s 58:48.41 1597.3%	0+0k 870784+1914704io 148pf+0w
