LAMMPS data file. CGCMM style. atom_style full generated by VMD/TopoTools v1.7 on Tue May 04 16:30:24 AEST 2021

 780 atoms
 780 bonds
 1200 angles
 1560 dihedrals
 240 impropers
 10 atom types
 22 bond types
 93 angle types
 2403 dihedral types
 4096 improper types
-0.998 40.614  xlo xhi
-0.859 40.994  ylo yhi
-0.813 40.537  zlo zhi

Masses

1      12.0100    # CA
2       1.0080    # H1
3       1.0080    # HA
4       1.0080    # HC
5      12.0100    # LC1
6      12.0100    # LC2
7      16.0000    # O
8      16.0000    # OH
9      32.0600    # S6
10     12.0100    # C3

Pair Coeffs

1         0.086   3.39967    # CA
2         0.016   2.47135    # H1
3         0.015   2.59964    # HA
4         0.016   2.64953    # HC
5         0.109   3.39967    # LC1
6         0.109   3.39967    # LC2
7         0.210   2.95992    # O
8         0.210   3.06647    # OH
9         0.250   3.56359    # S6
10        0.109   3.39967    # C3

Bond Coeffs

1        478.4      1.387    # CA-CA
2        344.3      1.087    # CA-HA
3        323.5      1.513    # CA-LC2
4        263.9      1.759    # CA-S6
5        335.9      1.093    # H1-LC2
6        337.3      1.092    # HC-LC1
7        337.3      1.092    # HC-LC2
8        303.1      1.535    # LC1-LC2
9        541.1      1.436    # O-S6
10       344.1      1.588    # OH-S6
11       303.1      1.535    # C3-C3
12       323.5      1.513    # C3-CA
13       335.9      1.093    # C3-H1
14       337.3      1.092    # C3-HC
15       303.1      1.535    # LC1-C3
16       323.5      1.513    # LC1-CA
17       335.9      1.093    # LC1-H1
18       337.3      1.092    # LC1-HC
19       303.1      1.535    # LC2-C3
20       323.5      1.513    # LC2-CA
21       335.9      1.093    # LC2-H1
22       337.3      1.092    # LC2-HC

Angle Coeffs

1        67.18     119.97    # CA-CA-CA
2        48.46     120.01    # CA-CA-HA
3        63.84     120.63    # CA-CA-LC2
4        62.18     120.54    # CA-CA-S6
5        46.78     110.95    # CA-LC2-H1
6        46.96     110.15    # CA-LC2-HC
7        63.25     112.09    # CA-LC2-LC1
8        68.37     104.07    # CA-S6-O
9        68.37     104.07    # CA-S6-OH
10       46.36     110.07    # H1-LC2-LC1
11       39.43     108.35    # HC-LC1-HC
12       46.37     110.05    # HC-LC1-LC2
13       46.37     110.05    # HC-LC2-LC1
14       74.58     119.73    # O-S6-O
15       74.13     108.21    # O-S6-OH
16        63.2    110.630    # LC2-LC2-LC2
17        63.2    110.630    # C3-C3-C3
18        63.2    110.630    # C3-LC2-LC2
19        63.2    110.630    # LC2-C3-LC2
20        63.2    110.630    # LC2-LC2-C3
21        63.2    110.630    # LC2-LC2-LC1
22        63.2    110.630    # C3-LC2-LC1
23        63.2    110.630    # LC2-C3-LC1
24        63.2    110.630    # C3-LC2-C3
25        63.2    110.630    # LC2-C3-C3
26        63.2    110.630    # LC2-LC1-LC2
27        63.2    110.630    # C3-LC1-LC2
28        63.2    110.630    # LC2-LC1-C3
29        63.2    110.630    # LC2-LC1-LC1
30        63.2    110.630    # C3-LC1-LC1
31        63.2    110.630    # C3-LC1-C3
32        63.2    110.630    # C3-C3-LC2
33        63.2    110.630    # C3-C3-LC1
34        63.2    110.630    # LC1-LC2-LC2
35        63.2    110.630    # LC1-C3-LC2
36        63.2    110.630    # LC1-LC2-C3
37        63.2    110.630    # LC1-LC2-LC1
38        63.2    110.630    # LC1-C3-LC1
39        63.2    110.630    # LC1-C3-C3
40        63.2    110.630    # LC1-LC1-LC2
41        63.2    110.630    # LC1-LC1-C3
42        63.2    110.630    # LC1-LC1-LC1
43        63.2    112.090    # LC2-LC2-CA
44        63.2    112.090    # C3-C3-CA
45        63.2    112.090    # C3-LC2-CA
46        63.2    112.090    # LC2-C3-CA
47        63.2    112.090    # LC2-LC1-CA
48        63.2    112.090    # C3-LC1-CA
49        63.2    112.090    # LC1-LC2-CA
50        63.2    112.090    # LC1-C3-CA
51        63.2    112.090    # LC1-LC1-CA
52        46.4    110.070    # LC2-LC2-H1
53        46.4    110.070    # C3-C3-H1
54        46.4    110.070    # C3-LC2-H1
55        46.4    110.070    # LC2-C3-H1
56        46.4    110.070    # LC2-LC1-H1
57        46.4    110.070    # C3-LC1-H1
58        46.4    110.070    # LC1-LC2-H1
59        46.4    110.070    # LC1-C3-H1
60        46.4    110.070    # LC1-LC1-H1
61        46.4    110.050    # LC2-LC2-HC
62        46.4    110.050    # C3-C3-HC
63        46.4    110.050    # C3-LC2-HC
64        46.4    110.050    # LC2-C3-HC
65        46.4    110.050    # LC2-LC1-HC
66        46.4    110.050    # C3-LC1-HC
67        46.4    110.050    # LC1-LC2-HC
68        46.4    110.050    # LC1-C3-HC
69        46.4    110.050    # LC1-LC1-HC
70        63.7    112.260    # CA-LC2-CA
71        63.7    112.260    # CA-C3-CA
72        63.7    112.260    # CA-LC1-CA
73        46.8    110.950    # CA-C3-H1
74        46.8    110.950    # CA-LC1-H1
75        47.0    110.150    # CA-C3-HC
76        47.0    110.150    # CA-LC1-HC
77        39.2    109.550    # H1-LC2-H1
78        39.2    109.550    # H1-C3-H1
79        39.2    109.550    # H1-LC1-H1
80        39.4    108.350    # HC-LC2-HC
81        39.4    108.350    # HC-C3-HC
82        62.4    116.800    # LC2-CA-LC2
83        62.4    116.800    # C3-CA-C3
84        62.4    116.800    # C3-CA-LC2
85        62.4    116.800    # LC2-CA-C3
86        62.4    116.800    # LC2-CA-LC1
87        62.4    116.800    # C3-CA-LC1
88        62.4    116.800    # LC1-CA-LC2
89        62.4    116.800    # LC1-CA-C3
90        62.4    116.800    # LC1-CA-LC1
91        63.8    120.630    # LC2-CA-CA
92        63.8    120.630    # C3-CA-CA
93        63.8    120.630    # LC1-CA-CA

Dihedral Coeffs

1    1  3.625  2  180.0  # CA-CA-CA-CA
2    1  3.625  2  180.0  # CA-CA-CA-HA
3    1  3.625  2  180.0  # CA-CA-CA-LC2
4    1  3.625  2  180.0  # CA-CA-CA-S6
5    1  0.0  2  0.0  # CA-CA-LC2-H1
6    1  0.0  2  0.0  # CA-CA-LC2-HC
7    1  0.0  2  0.0  # CA-CA-LC2-LC1
8    1  1.3  2  180.0  # CA-CA-S6-O
9    1  1.3  2  180.0  # CA-CA-S6-OH
10   1  3.625  2  180.0  # HA-CA-CA-HA
11   1  3.625  2  180.0  # HA-CA-CA-LC2
12   1  3.625  2  180.0  # HA-CA-CA-S6
13   1  0.155555555556  3  0.0  # HC-LC1-LC2-CA
14   1  0.155555555556  3  0.0  # HC-LC1-LC2-H1
15   1  0.155555555556  3  0.0  # HC-LC1-LC2-HC
16   1 0.155555555556 3 0.0  # H1-LC2-LC2-H1
17   1 0.155555555556 3 0.0  # H1-C3-C3-H1
18   1 0.155555555556 3 0.0  # H1-C3-LC2-H1
19   1 0.155555555556 3 0.0  # H1-LC2-C3-H1
20   1 0.155555555556 3 0.0  # H1-LC2-LC2-CA
21   1 0.155555555556 3 0.0  # H1-C3-C3-CA
22   1 0.155555555556 3 0.0  # H1-C3-LC2-CA
23   1 0.155555555556 3 0.0  # H1-LC2-C3-CA
24   1 0.155555555556 3 0.0  # H1-LC2-LC2-LC2
25   1 0.155555555556 3 0.0  # H1-C3-C3-C3
26   1 0.155555555556 3 0.0  # H1-C3-LC2-LC2
27   1 0.155555555556 3 0.0  # H1-LC2-C3-LC2
28   1 0.155555555556 3 0.0  # H1-LC2-LC2-C3
29   1 0.155555555556 3 0.0  # H1-LC2-LC2-HC
30   1 0.155555555556 3 0.0  # H1-C3-C3-HC
31   1 0.155555555556 3 0.0  # H1-C3-LC2-HC
32   1 0.155555555556 3 0.0  # H1-LC2-C3-HC
33   1 0.155555555556 3 0.0  # H1-LC2-LC2-HA
34   1 0.155555555556 3 0.0  # H1-C3-C3-HA
35   1 0.155555555556 3 0.0  # H1-C3-LC2-HA
36   1 0.155555555556 3 0.0  # H1-LC2-C3-HA
37   1 0.155555555556 3 0.0  # H1-LC2-LC2-LC1
38   1 0.155555555556 3 0.0  # H1-C3-LC2-LC1
39   1 0.155555555556 3 0.0  # H1-LC2-C3-LC1
40   1 0.155555555556 3 0.0  # H1-C3-LC2-C3
41   1 0.155555555556 3 0.0  # H1-LC2-C3-C3
42   1 0.155555555556 3 0.0  # H1-LC2-LC2-S6
43   1 0.155555555556 3 0.0  # H1-C3-C3-S6
44   1 0.155555555556 3 0.0  # H1-C3-LC2-S6
45   1 0.155555555556 3 0.0  # H1-LC2-C3-S6
46   1 0.155555555556 3 0.0  # H1-LC2-LC2-O
47   1 0.155555555556 3 0.0  # H1-C3-C3-O
48   1 0.155555555556 3 0.0  # H1-C3-LC2-O
49   1 0.155555555556 3 0.0  # H1-LC2-C3-O
50   1 0.155555555556 3 0.0  # H1-LC2-LC2-OH
51   1 0.155555555556 3 0.0  # H1-C3-C3-OH
52   1 0.155555555556 3 0.0  # H1-C3-LC2-OH
53   1 0.155555555556 3 0.0  # H1-LC2-C3-OH
54   1 0.155555555556 3 0.0  # H1-LC2-LC1-H1
55   1 0.155555555556 3 0.0  # H1-C3-LC1-H1
56   1 0.155555555556 3 0.0  # H1-LC2-LC1-CA
57   1 0.155555555556 3 0.0  # H1-C3-LC1-CA
58   1 0.155555555556 3 0.0  # H1-LC2-LC1-LC2
59   1 0.155555555556 3 0.0  # H1-C3-LC1-LC2
60   1 0.155555555556 3 0.0  # H1-LC2-LC1-C3
61   1 0.155555555556 3 0.0  # H1-LC2-LC1-HC
62   1 0.155555555556 3 0.0  # H1-C3-LC1-HC
63   1 0.155555555556 3 0.0  # H1-LC2-LC1-HA
64   1 0.155555555556 3 0.0  # H1-C3-LC1-HA
65   1 0.155555555556 3 0.0  # H1-LC2-LC1-LC1
66   1 0.155555555556 3 0.0  # H1-C3-LC1-LC1
67   1 0.155555555556 3 0.0  # H1-C3-LC1-C3
68   1 0.155555555556 3 0.0  # H1-LC2-LC1-S6
69   1 0.155555555556 3 0.0  # H1-C3-LC1-S6
70   1 0.155555555556 3 0.0  # H1-LC2-LC1-O
71   1 0.155555555556 3 0.0  # H1-C3-LC1-O
72   1 0.155555555556 3 0.0  # H1-LC2-LC1-OH
73   1 0.155555555556 3 0.0  # H1-C3-LC1-OH
74   1 0.155555555556 3 0.0  # H1-C3-C3-LC2
75   1 0.155555555556 3 0.0  # H1-C3-C3-LC1
76   1 0.155555555556 3 0.0  # H1-LC1-LC2-H1
77   1 0.155555555556 3 0.0  # H1-LC1-C3-H1
78   1 0.155555555556 3 0.0  # H1-LC1-LC2-CA
79   1 0.155555555556 3 0.0  # H1-LC1-C3-CA
80   1 0.155555555556 3 0.0  # H1-LC1-LC2-LC2
81   1 0.155555555556 3 0.0  # H1-LC1-C3-LC2
82   1 0.155555555556 3 0.0  # H1-LC1-LC2-C3
83   1 0.155555555556 3 0.0  # H1-LC1-LC2-HC
84   1 0.155555555556 3 0.0  # H1-LC1-C3-HC
85   1 0.155555555556 3 0.0  # H1-LC1-LC2-HA
86   1 0.155555555556 3 0.0  # H1-LC1-C3-HA
87   1 0.155555555556 3 0.0  # H1-LC1-LC2-LC1
88   1 0.155555555556 3 0.0  # H1-LC1-C3-LC1
89   1 0.155555555556 3 0.0  # H1-LC1-C3-C3
90   1 0.155555555556 3 0.0  # H1-LC1-LC2-S6
91   1 0.155555555556 3 0.0  # H1-LC1-C3-S6
92   1 0.155555555556 3 0.0  # H1-LC1-LC2-O
93   1 0.155555555556 3 0.0  # H1-LC1-C3-O
94   1 0.155555555556 3 0.0  # H1-LC1-LC2-OH
95   1 0.155555555556 3 0.0  # H1-LC1-C3-OH
96   1 0.155555555556 3 0.0  # H1-LC1-LC1-H1
97   1 0.155555555556 3 0.0  # H1-LC1-LC1-CA
98   1 0.155555555556 3 0.0  # H1-LC1-LC1-LC2
99   1 0.155555555556 3 0.0  # H1-LC1-LC1-C3
100  1 0.155555555556 3 0.0  # H1-LC1-LC1-HC
101  1 0.155555555556 3 0.0  # H1-LC1-LC1-HA
102  1 0.155555555556 3 0.0  # H1-LC1-LC1-LC1
103  1 0.155555555556 3 0.0  # H1-LC1-LC1-S6
104  1 0.155555555556 3 0.0  # H1-LC1-LC1-O
105  1 0.155555555556 3 0.0  # H1-LC1-LC1-OH
106  1 0.155555555556 3 0.0  # CA-LC2-LC2-H1
107  1 0.155555555556 3 0.0  # CA-C3-C3-H1
108  1 0.155555555556 3 0.0  # CA-C3-LC2-H1
109  1 0.155555555556 3 0.0  # CA-LC2-C3-H1
110  1 0.155555555556 3 0.0  # CA-LC2-LC2-CA
111  1 0.155555555556 3 0.0  # CA-C3-C3-CA
112  1 0.155555555556 3 0.0  # CA-C3-LC2-CA
113  1 0.155555555556 3 0.0  # CA-LC2-C3-CA
114  1 0.155555555556 3 0.0  # CA-LC2-LC2-LC2
115  1 0.155555555556 3 0.0  # CA-C3-C3-C3
116  1 0.155555555556 3 0.0  # CA-C3-LC2-LC2
117  1 0.155555555556 3 0.0  # CA-LC2-C3-LC2
118  1 0.155555555556 3 0.0  # CA-LC2-LC2-C3
119  1 0.155555555556 3 0.0  # CA-LC2-LC2-HC
120  1 0.155555555556 3 0.0  # CA-C3-C3-HC
121  1 0.155555555556 3 0.0  # CA-C3-LC2-HC
122  1 0.155555555556 3 0.0  # CA-LC2-C3-HC
123  1 0.155555555556 3 0.0  # CA-LC2-LC2-HA
124  1 0.155555555556 3 0.0  # CA-C3-C3-HA
125  1 0.155555555556 3 0.0  # CA-C3-LC2-HA
126  1 0.155555555556 3 0.0  # CA-LC2-C3-HA
127  1 0.155555555556 3 0.0  # CA-LC2-LC2-LC1
128  1 0.155555555556 3 0.0  # CA-C3-LC2-LC1
129  1 0.155555555556 3 0.0  # CA-LC2-C3-LC1
130  1 0.155555555556 3 0.0  # CA-C3-LC2-C3
131  1 0.155555555556 3 0.0  # CA-LC2-C3-C3
132  1 0.155555555556 3 0.0  # CA-LC2-LC2-S6
133  1 0.155555555556 3 0.0  # CA-C3-C3-S6
134  1 0.155555555556 3 0.0  # CA-C3-LC2-S6
135  1 0.155555555556 3 0.0  # CA-LC2-C3-S6
136  1 0.155555555556 3 0.0  # CA-LC2-LC2-O
137  1 0.155555555556 3 0.0  # CA-C3-C3-O
138  1 0.155555555556 3 0.0  # CA-C3-LC2-O
139  1 0.155555555556 3 0.0  # CA-LC2-C3-O
140  1 0.155555555556 3 0.0  # CA-LC2-LC2-OH
141  1 0.155555555556 3 0.0  # CA-C3-C3-OH
142  1 0.155555555556 3 0.0  # CA-C3-LC2-OH
143  1 0.155555555556 3 0.0  # CA-LC2-C3-OH
144  1 0.155555555556 3 0.0  # CA-LC2-LC1-H1
145  1 0.155555555556 3 0.0  # CA-C3-LC1-H1
146  1 0.155555555556 3 0.0  # CA-LC2-LC1-CA
147  1 0.155555555556 3 0.0  # CA-C3-LC1-CA
148  1 0.155555555556 3 0.0  # CA-LC2-LC1-LC2
149  1 0.155555555556 3 0.0  # CA-C3-LC1-LC2
150  1 0.155555555556 3 0.0  # CA-LC2-LC1-C3
151  1 0.155555555556 3 0.0  # CA-LC2-LC1-HC
152  1 0.155555555556 3 0.0  # CA-C3-LC1-HC
153  1 0.155555555556 3 0.0  # CA-LC2-LC1-HA
154  1 0.155555555556 3 0.0  # CA-C3-LC1-HA
155  1 0.155555555556 3 0.0  # CA-LC2-LC1-LC1
156  1 0.155555555556 3 0.0  # CA-C3-LC1-LC1
157  1 0.155555555556 3 0.0  # CA-C3-LC1-C3
158  1 0.155555555556 3 0.0  # CA-LC2-LC1-S6
159  1 0.155555555556 3 0.0  # CA-C3-LC1-S6
160  1 0.155555555556 3 0.0  # CA-LC2-LC1-O
161  1 0.155555555556 3 0.0  # CA-C3-LC1-O
162  1 0.155555555556 3 0.0  # CA-LC2-LC1-OH
163  1 0.155555555556 3 0.0  # CA-C3-LC1-OH
164  1 0.155555555556 3 0.0  # CA-C3-C3-LC2
165  1 0.155555555556 3 0.0  # CA-C3-C3-LC1
166  1 0.155555555556 3 0.0  # CA-LC1-LC2-H1
167  1 0.155555555556 3 0.0  # CA-LC1-C3-H1
168  1 0.155555555556 3 0.0  # CA-LC1-LC2-CA
169  1 0.155555555556 3 0.0  # CA-LC1-C3-CA
170  1 0.155555555556 3 0.0  # CA-LC1-LC2-LC2
171  1 0.155555555556 3 0.0  # CA-LC1-C3-LC2
172  1 0.155555555556 3 0.0  # CA-LC1-LC2-C3
173  1 0.155555555556 3 0.0  # CA-LC1-LC2-HC
174  1 0.155555555556 3 0.0  # CA-LC1-C3-HC
175  1 0.155555555556 3 0.0  # CA-LC1-LC2-HA
176  1 0.155555555556 3 0.0  # CA-LC1-C3-HA
177  1 0.155555555556 3 0.0  # CA-LC1-LC2-LC1
178  1 0.155555555556 3 0.0  # CA-LC1-C3-LC1
179  1 0.155555555556 3 0.0  # CA-LC1-C3-C3
180  1 0.155555555556 3 0.0  # CA-LC1-LC2-S6
181  1 0.155555555556 3 0.0  # CA-LC1-C3-S6
182  1 0.155555555556 3 0.0  # CA-LC1-LC2-O
183  1 0.155555555556 3 0.0  # CA-LC1-C3-O
184  1 0.155555555556 3 0.0  # CA-LC1-LC2-OH
185  1 0.155555555556 3 0.0  # CA-LC1-C3-OH
186  1 0.155555555556 3 0.0  # CA-LC1-LC1-H1
187  1 0.155555555556 3 0.0  # CA-LC1-LC1-CA
188  1 0.155555555556 3 0.0  # CA-LC1-LC1-LC2
189  1 0.155555555556 3 0.0  # CA-LC1-LC1-C3
190  1 0.155555555556 3 0.0  # CA-LC1-LC1-HC
191  1 0.155555555556 3 0.0  # CA-LC1-LC1-HA
192  1 0.155555555556 3 0.0  # CA-LC1-LC1-LC1
193  1 0.155555555556 3 0.0  # CA-LC1-LC1-S6
194  1 0.155555555556 3 0.0  # CA-LC1-LC1-O
195  1 0.155555555556 3 0.0  # CA-LC1-LC1-OH
196  1 0.155555555556 3 0.0  # LC2-LC2-LC2-H1
197  1 0.155555555556 3 0.0  # C3-C3-C3-H1
198  1 0.155555555556 3 0.0  # C3-LC2-LC2-H1
199  1 0.155555555556 3 0.0  # LC2-C3-LC2-H1
200  1 0.155555555556 3 0.0  # LC2-LC2-C3-H1
201  1 0.155555555556 3 0.0  # LC2-LC2-LC2-CA
202  1 0.155555555556 3 0.0  # C3-C3-C3-CA
203  1 0.155555555556 3 0.0  # C3-LC2-LC2-CA
204  1 0.155555555556 3 0.0  # LC2-C3-LC2-CA
205  1 0.155555555556 3 0.0  # LC2-LC2-C3-CA
206  1 0.155555555556 3 0.0  # LC2-LC2-LC2-LC2
207  1 0.155555555556 3 0.0  # C3-C3-C3-C3
208  1 0.155555555556 3 0.0  # C3-LC2-LC2-LC2
209  1 0.155555555556 3 0.0  # LC2-C3-LC2-LC2
210  1 0.155555555556 3 0.0  # LC2-LC2-C3-LC2
211  1 0.155555555556 3 0.0  # LC2-LC2-LC2-C3
212  1 0.155555555556 3 0.0  # LC2-LC2-LC2-HC
213  1 0.155555555556 3 0.0  # C3-C3-C3-HC
214  1 0.155555555556 3 0.0  # C3-LC2-LC2-HC
215  1 0.155555555556 3 0.0  # LC2-C3-LC2-HC
216  1 0.155555555556 3 0.0  # LC2-LC2-C3-HC
217  1 0.155555555556 3 0.0  # LC2-LC2-LC2-HA
218  1 0.155555555556 3 0.0  # C3-C3-C3-HA
219  1 0.155555555556 3 0.0  # C3-LC2-LC2-HA
220  1 0.155555555556 3 0.0  # LC2-C3-LC2-HA
221  1 0.155555555556 3 0.0  # LC2-LC2-C3-HA
222  1 0.155555555556 3 0.0  # LC2-LC2-LC2-LC1
223  1 0.155555555556 3 0.0  # C3-LC2-LC2-LC1
224  1 0.155555555556 3 0.0  # LC2-C3-LC2-LC1
225  1 0.155555555556 3 0.0  # LC2-LC2-C3-LC1
226  1 0.155555555556 3 0.0  # C3-LC2-LC2-C3
227  1 0.155555555556 3 0.0  # LC2-C3-LC2-C3
228  1 0.155555555556 3 0.0  # LC2-LC2-C3-C3
229  1 0.155555555556 3 0.0  # LC2-LC2-LC2-S6
230  1 0.155555555556 3 0.0  # C3-C3-C3-S6
231  1 0.155555555556 3 0.0  # C3-LC2-LC2-S6
232  1 0.155555555556 3 0.0  # LC2-C3-LC2-S6
233  1 0.155555555556 3 0.0  # LC2-LC2-C3-S6
234  1 0.155555555556 3 0.0  # LC2-LC2-LC2-O
235  1 0.155555555556 3 0.0  # C3-C3-C3-O
236  1 0.155555555556 3 0.0  # C3-LC2-LC2-O
237  1 0.155555555556 3 0.0  # LC2-C3-LC2-O
238  1 0.155555555556 3 0.0  # LC2-LC2-C3-O
239  1 0.155555555556 3 0.0  # LC2-LC2-LC2-OH
240  1 0.155555555556 3 0.0  # C3-C3-C3-OH
241  1 0.155555555556 3 0.0  # C3-LC2-LC2-OH
242  1 0.155555555556 3 0.0  # LC2-C3-LC2-OH
243  1 0.155555555556 3 0.0  # LC2-LC2-C3-OH
244  1 0.155555555556 3 0.0  # LC2-LC2-LC1-H1
245  1 0.155555555556 3 0.0  # C3-LC2-LC1-H1
246  1 0.155555555556 3 0.0  # LC2-C3-LC1-H1
247  1 0.155555555556 3 0.0  # LC2-LC2-LC1-CA
248  1 0.155555555556 3 0.0  # C3-LC2-LC1-CA
249  1 0.155555555556 3 0.0  # LC2-C3-LC1-CA
250  1 0.155555555556 3 0.0  # LC2-LC2-LC1-LC2
251  1 0.155555555556 3 0.0  # C3-LC2-LC1-LC2
252  1 0.155555555556 3 0.0  # LC2-C3-LC1-LC2
253  1 0.155555555556 3 0.0  # LC2-LC2-LC1-C3
254  1 0.155555555556 3 0.0  # LC2-LC2-LC1-HC
255  1 0.155555555556 3 0.0  # C3-LC2-LC1-HC
256  1 0.155555555556 3 0.0  # LC2-C3-LC1-HC
257  1 0.155555555556 3 0.0  # LC2-LC2-LC1-HA
258  1 0.155555555556 3 0.0  # C3-LC2-LC1-HA
259  1 0.155555555556 3 0.0  # LC2-C3-LC1-HA
260  1 0.155555555556 3 0.0  # LC2-LC2-LC1-LC1
261  1 0.155555555556 3 0.0  # C3-LC2-LC1-LC1
262  1 0.155555555556 3 0.0  # LC2-C3-LC1-LC1
263  1 0.155555555556 3 0.0  # C3-LC2-LC1-C3
264  1 0.155555555556 3 0.0  # LC2-C3-LC1-C3
265  1 0.155555555556 3 0.0  # LC2-LC2-LC1-S6
266  1 0.155555555556 3 0.0  # C3-LC2-LC1-S6
267  1 0.155555555556 3 0.0  # LC2-C3-LC1-S6
268  1 0.155555555556 3 0.0  # LC2-LC2-LC1-O
269  1 0.155555555556 3 0.0  # C3-LC2-LC1-O
270  1 0.155555555556 3 0.0  # LC2-C3-LC1-O
271  1 0.155555555556 3 0.0  # LC2-LC2-LC1-OH
272  1 0.155555555556 3 0.0  # C3-LC2-LC1-OH
273  1 0.155555555556 3 0.0  # LC2-C3-LC1-OH
274  1 0.155555555556 3 0.0  # C3-LC2-C3-H1
275  1 0.155555555556 3 0.0  # LC2-C3-C3-H1
276  1 0.155555555556 3 0.0  # C3-LC2-C3-CA
277  1 0.155555555556 3 0.0  # LC2-C3-C3-CA
278  1 0.155555555556 3 0.0  # C3-LC2-C3-LC2
279  1 0.155555555556 3 0.0  # LC2-C3-C3-LC2
280  1 0.155555555556 3 0.0  # C3-LC2-C3-HC
281  1 0.155555555556 3 0.0  # LC2-C3-C3-HC
282  1 0.155555555556 3 0.0  # C3-LC2-C3-HA
283  1 0.155555555556 3 0.0  # LC2-C3-C3-HA
284  1 0.155555555556 3 0.0  # C3-LC2-C3-LC1
285  1 0.155555555556 3 0.0  # LC2-C3-C3-LC1
286  1 0.155555555556 3 0.0  # C3-LC2-C3-C3
287  1 0.155555555556 3 0.0  # LC2-C3-C3-C3
288  1 0.155555555556 3 0.0  # C3-LC2-C3-S6
289  1 0.155555555556 3 0.0  # LC2-C3-C3-S6
290  1 0.155555555556 3 0.0  # C3-LC2-C3-O
291  1 0.155555555556 3 0.0  # LC2-C3-C3-O
292  1 0.155555555556 3 0.0  # C3-LC2-C3-OH
293  1 0.155555555556 3 0.0  # LC2-C3-C3-OH
294  1 0.155555555556 3 0.0  # LC2-LC1-LC2-H1
295  1 0.155555555556 3 0.0  # C3-LC1-LC2-H1
296  1 0.155555555556 3 0.0  # LC2-LC1-C3-H1
297  1 0.155555555556 3 0.0  # LC2-LC1-LC2-CA
298  1 0.155555555556 3 0.0  # C3-LC1-LC2-CA
299  1 0.155555555556 3 0.0  # LC2-LC1-C3-CA
300  1 0.155555555556 3 0.0  # LC2-LC1-LC2-LC2
301  1 0.155555555556 3 0.0  # C3-LC1-LC2-LC2
302  1 0.155555555556 3 0.0  # LC2-LC1-C3-LC2
303  1 0.155555555556 3 0.0  # LC2-LC1-LC2-C3
304  1 0.155555555556 3 0.0  # LC2-LC1-LC2-HC
305  1 0.155555555556 3 0.0  # C3-LC1-LC2-HC
306  1 0.155555555556 3 0.0  # LC2-LC1-C3-HC
307  1 0.155555555556 3 0.0  # LC2-LC1-LC2-HA
308  1 0.155555555556 3 0.0  # C3-LC1-LC2-HA
309  1 0.155555555556 3 0.0  # LC2-LC1-C3-HA
310  1 0.155555555556 3 0.0  # LC2-LC1-LC2-LC1
311  1 0.155555555556 3 0.0  # C3-LC1-LC2-LC1
312  1 0.155555555556 3 0.0  # LC2-LC1-C3-LC1
313  1 0.155555555556 3 0.0  # C3-LC1-LC2-C3
314  1 0.155555555556 3 0.0  # LC2-LC1-C3-C3
315  1 0.155555555556 3 0.0  # LC2-LC1-LC2-S6
316  1 0.155555555556 3 0.0  # C3-LC1-LC2-S6
317  1 0.155555555556 3 0.0  # LC2-LC1-C3-S6
318  1 0.155555555556 3 0.0  # LC2-LC1-LC2-O
319  1 0.155555555556 3 0.0  # C3-LC1-LC2-O
320  1 0.155555555556 3 0.0  # LC2-LC1-C3-O
321  1 0.155555555556 3 0.0  # LC2-LC1-LC2-OH
322  1 0.155555555556 3 0.0  # C3-LC1-LC2-OH
323  1 0.155555555556 3 0.0  # LC2-LC1-C3-OH
324  1 0.155555555556 3 0.0  # LC2-LC1-LC1-H1
325  1 0.155555555556 3 0.0  # C3-LC1-LC1-H1
326  1 0.155555555556 3 0.0  # LC2-LC1-LC1-CA
327  1 0.155555555556 3 0.0  # C3-LC1-LC1-CA
328  1 0.155555555556 3 0.0  # LC2-LC1-LC1-LC2
329  1 0.155555555556 3 0.0  # C3-LC1-LC1-LC2
330  1 0.155555555556 3 0.0  # LC2-LC1-LC1-C3
331  1 0.155555555556 3 0.0  # LC2-LC1-LC1-HC
332  1 0.155555555556 3 0.0  # C3-LC1-LC1-HC
333  1 0.155555555556 3 0.0  # LC2-LC1-LC1-HA
334  1 0.155555555556 3 0.0  # C3-LC1-LC1-HA
335  1 0.155555555556 3 0.0  # LC2-LC1-LC1-LC1
336  1 0.155555555556 3 0.0  # C3-LC1-LC1-LC1
337  1 0.155555555556 3 0.0  # C3-LC1-LC1-C3
338  1 0.155555555556 3 0.0  # LC2-LC1-LC1-S6
339  1 0.155555555556 3 0.0  # C3-LC1-LC1-S6
340  1 0.155555555556 3 0.0  # LC2-LC1-LC1-O
341  1 0.155555555556 3 0.0  # C3-LC1-LC1-O
342  1 0.155555555556 3 0.0  # LC2-LC1-LC1-OH
343  1 0.155555555556 3 0.0  # C3-LC1-LC1-OH
344  1 0.155555555556 3 0.0  # C3-LC1-C3-H1
345  1 0.155555555556 3 0.0  # C3-LC1-C3-CA
346  1 0.155555555556 3 0.0  # C3-LC1-C3-LC2
347  1 0.155555555556 3 0.0  # C3-LC1-C3-HC
348  1 0.155555555556 3 0.0  # C3-LC1-C3-HA
349  1 0.155555555556 3 0.0  # C3-LC1-C3-LC1
350  1 0.155555555556 3 0.0  # C3-LC1-C3-C3
351  1 0.155555555556 3 0.0  # C3-LC1-C3-S6
352  1 0.155555555556 3 0.0  # C3-LC1-C3-O
353  1 0.155555555556 3 0.0  # C3-LC1-C3-OH
354  1 0.155555555556 3 0.0  # C3-C3-LC2-H1
355  1 0.155555555556 3 0.0  # C3-C3-LC2-CA
356  1 0.155555555556 3 0.0  # C3-C3-LC2-LC2
357  1 0.155555555556 3 0.0  # C3-C3-LC2-HC
358  1 0.155555555556 3 0.0  # C3-C3-LC2-HA
359  1 0.155555555556 3 0.0  # C3-C3-LC2-LC1
360  1 0.155555555556 3 0.0  # C3-C3-LC2-C3
361  1 0.155555555556 3 0.0  # C3-C3-LC2-S6
362  1 0.155555555556 3 0.0  # C3-C3-LC2-O
363  1 0.155555555556 3 0.0  # C3-C3-LC2-OH
364  1 0.155555555556 3 0.0  # C3-C3-LC1-H1
365  1 0.155555555556 3 0.0  # C3-C3-LC1-CA
366  1 0.155555555556 3 0.0  # C3-C3-LC1-LC2
367  1 0.155555555556 3 0.0  # C3-C3-LC1-HC
368  1 0.155555555556 3 0.0  # C3-C3-LC1-HA
369  1 0.155555555556 3 0.0  # C3-C3-LC1-LC1
370  1 0.155555555556 3 0.0  # C3-C3-LC1-C3
371  1 0.155555555556 3 0.0  # C3-C3-LC1-S6
372  1 0.155555555556 3 0.0  # C3-C3-LC1-O
373  1 0.155555555556 3 0.0  # C3-C3-LC1-OH
374  1 0.155555555556 3 0.0  # C3-C3-C3-LC2
375  1 0.155555555556 3 0.0  # C3-C3-C3-LC1
376  1 0.155555555556 3 0.0  # HC-LC2-LC2-H1
377  1 0.155555555556 3 0.0  # HC-C3-C3-H1
378  1 0.155555555556 3 0.0  # HC-C3-LC2-H1
379  1 0.155555555556 3 0.0  # HC-LC2-C3-H1
380  1 0.155555555556 3 0.0  # HC-LC2-LC2-CA
381  1 0.155555555556 3 0.0  # HC-C3-C3-CA
382  1 0.155555555556 3 0.0  # HC-C3-LC2-CA
383  1 0.155555555556 3 0.0  # HC-LC2-C3-CA
384  1 0.155555555556 3 0.0  # HC-LC2-LC2-LC2
385  1 0.155555555556 3 0.0  # HC-C3-C3-C3
386  1 0.155555555556 3 0.0  # HC-C3-LC2-LC2
387  1 0.155555555556 3 0.0  # HC-LC2-C3-LC2
388  1 0.155555555556 3 0.0  # HC-LC2-LC2-C3
389  1 0.155555555556 3 0.0  # HC-LC2-LC2-HC
390  1 0.155555555556 3 0.0  # HC-C3-C3-HC
391  1 0.155555555556 3 0.0  # HC-C3-LC2-HC
392  1 0.155555555556 3 0.0  # HC-LC2-C3-HC
393  1 0.155555555556 3 0.0  # HC-LC2-LC2-HA
394  1 0.155555555556 3 0.0  # HC-C3-C3-HA
395  1 0.155555555556 3 0.0  # HC-C3-LC2-HA
396  1 0.155555555556 3 0.0  # HC-LC2-C3-HA
397  1 0.155555555556 3 0.0  # HC-LC2-LC2-LC1
398  1 0.155555555556 3 0.0  # HC-C3-LC2-LC1
399  1 0.155555555556 3 0.0  # HC-LC2-C3-LC1
400  1 0.155555555556 3 0.0  # HC-C3-LC2-C3
401  1 0.155555555556 3 0.0  # HC-LC2-C3-C3
402  1 0.155555555556 3 0.0  # HC-LC2-LC2-S6
403  1 0.155555555556 3 0.0  # HC-C3-C3-S6
404  1 0.155555555556 3 0.0  # HC-C3-LC2-S6
405  1 0.155555555556 3 0.0  # HC-LC2-C3-S6
406  1 0.155555555556 3 0.0  # HC-LC2-LC2-O
407  1 0.155555555556 3 0.0  # HC-C3-C3-O
408  1 0.155555555556 3 0.0  # HC-C3-LC2-O
409  1 0.155555555556 3 0.0  # HC-LC2-C3-O
410  1 0.155555555556 3 0.0  # HC-LC2-LC2-OH
411  1 0.155555555556 3 0.0  # HC-C3-C3-OH
412  1 0.155555555556 3 0.0  # HC-C3-LC2-OH
413  1 0.155555555556 3 0.0  # HC-LC2-C3-OH
414  1 0.155555555556 3 0.0  # HC-LC2-LC1-H1
415  1 0.155555555556 3 0.0  # HC-C3-LC1-H1
416  1 0.155555555556 3 0.0  # HC-LC2-LC1-CA
417  1 0.155555555556 3 0.0  # HC-C3-LC1-CA
418  1 0.155555555556 3 0.0  # HC-LC2-LC1-LC2
419  1 0.155555555556 3 0.0  # HC-C3-LC1-LC2
420  1 0.155555555556 3 0.0  # HC-LC2-LC1-C3
421  1 0.155555555556 3 0.0  # HC-LC2-LC1-HC
422  1 0.155555555556 3 0.0  # HC-C3-LC1-HC
423  1 0.155555555556 3 0.0  # HC-LC2-LC1-HA
424  1 0.155555555556 3 0.0  # HC-C3-LC1-HA
425  1 0.155555555556 3 0.0  # HC-LC2-LC1-LC1
426  1 0.155555555556 3 0.0  # HC-C3-LC1-LC1
427  1 0.155555555556 3 0.0  # HC-C3-LC1-C3
428  1 0.155555555556 3 0.0  # HC-LC2-LC1-S6
429  1 0.155555555556 3 0.0  # HC-C3-LC1-S6
430  1 0.155555555556 3 0.0  # HC-LC2-LC1-O
431  1 0.155555555556 3 0.0  # HC-C3-LC1-O
432  1 0.155555555556 3 0.0  # HC-LC2-LC1-OH
433  1 0.155555555556 3 0.0  # HC-C3-LC1-OH
434  1 0.155555555556 3 0.0  # HC-C3-C3-LC2
435  1 0.155555555556 3 0.0  # HC-C3-C3-LC1
436  1 0.155555555556 3 0.0  # HC-LC1-C3-H1
437  1 0.155555555556 3 0.0  # HC-LC1-C3-CA
438  1 0.155555555556 3 0.0  # HC-LC1-LC2-LC2
439  1 0.155555555556 3 0.0  # HC-LC1-C3-LC2
440  1 0.155555555556 3 0.0  # HC-LC1-LC2-C3
441  1 0.155555555556 3 0.0  # HC-LC1-C3-HC
442  1 0.155555555556 3 0.0  # HC-LC1-LC2-HA
443  1 0.155555555556 3 0.0  # HC-LC1-C3-HA
444  1 0.155555555556 3 0.0  # HC-LC1-LC2-LC1
445  1 0.155555555556 3 0.0  # HC-LC1-C3-LC1
446  1 0.155555555556 3 0.0  # HC-LC1-C3-C3
447  1 0.155555555556 3 0.0  # HC-LC1-LC2-S6
448  1 0.155555555556 3 0.0  # HC-LC1-C3-S6
449  1 0.155555555556 3 0.0  # HC-LC1-LC2-O
450  1 0.155555555556 3 0.0  # HC-LC1-C3-O
451  1 0.155555555556 3 0.0  # HC-LC1-LC2-OH
452  1 0.155555555556 3 0.0  # HC-LC1-C3-OH
453  1 0.155555555556 3 0.0  # HC-LC1-LC1-H1
454  1 0.155555555556 3 0.0  # HC-LC1-LC1-CA
455  1 0.155555555556 3 0.0  # HC-LC1-LC1-LC2
456  1 0.155555555556 3 0.0  # HC-LC1-LC1-C3
457  1 0.155555555556 3 0.0  # HC-LC1-LC1-HC
458  1 0.155555555556 3 0.0  # HC-LC1-LC1-HA
459  1 0.155555555556 3 0.0  # HC-LC1-LC1-LC1
460  1 0.155555555556 3 0.0  # HC-LC1-LC1-S6
461  1 0.155555555556 3 0.0  # HC-LC1-LC1-O
462  1 0.155555555556 3 0.0  # HC-LC1-LC1-OH
463  1 0.155555555556 3 0.0  # HA-LC2-LC2-H1
464  1 0.155555555556 3 0.0  # HA-C3-C3-H1
465  1 0.155555555556 3 0.0  # HA-C3-LC2-H1
466  1 0.155555555556 3 0.0  # HA-LC2-C3-H1
467  1 0.155555555556 3 0.0  # HA-LC2-LC2-CA
468  1 0.155555555556 3 0.0  # HA-C3-C3-CA
469  1 0.155555555556 3 0.0  # HA-C3-LC2-CA
470  1 0.155555555556 3 0.0  # HA-LC2-C3-CA
471  1 0.155555555556 3 0.0  # HA-LC2-LC2-LC2
472  1 0.155555555556 3 0.0  # HA-C3-C3-C3
473  1 0.155555555556 3 0.0  # HA-C3-LC2-LC2
474  1 0.155555555556 3 0.0  # HA-LC2-C3-LC2
475  1 0.155555555556 3 0.0  # HA-LC2-LC2-C3
476  1 0.155555555556 3 0.0  # HA-LC2-LC2-HC
477  1 0.155555555556 3 0.0  # HA-C3-C3-HC
478  1 0.155555555556 3 0.0  # HA-C3-LC2-HC
479  1 0.155555555556 3 0.0  # HA-LC2-C3-HC
480  1 0.155555555556 3 0.0  # HA-LC2-LC2-HA
481  1 0.155555555556 3 0.0  # HA-C3-C3-HA
482  1 0.155555555556 3 0.0  # HA-C3-LC2-HA
483  1 0.155555555556 3 0.0  # HA-LC2-C3-HA
484  1 0.155555555556 3 0.0  # HA-LC2-LC2-LC1
485  1 0.155555555556 3 0.0  # HA-C3-LC2-LC1
486  1 0.155555555556 3 0.0  # HA-LC2-C3-LC1
487  1 0.155555555556 3 0.0  # HA-C3-LC2-C3
488  1 0.155555555556 3 0.0  # HA-LC2-C3-C3
489  1 0.155555555556 3 0.0  # HA-LC2-LC2-S6
490  1 0.155555555556 3 0.0  # HA-C3-C3-S6
491  1 0.155555555556 3 0.0  # HA-C3-LC2-S6
492  1 0.155555555556 3 0.0  # HA-LC2-C3-S6
493  1 0.155555555556 3 0.0  # HA-LC2-LC2-O
494  1 0.155555555556 3 0.0  # HA-C3-C3-O
495  1 0.155555555556 3 0.0  # HA-C3-LC2-O
496  1 0.155555555556 3 0.0  # HA-LC2-C3-O
497  1 0.155555555556 3 0.0  # HA-LC2-LC2-OH
498  1 0.155555555556 3 0.0  # HA-C3-C3-OH
499  1 0.155555555556 3 0.0  # HA-C3-LC2-OH
500  1 0.155555555556 3 0.0  # HA-LC2-C3-OH
501  1 0.155555555556 3 0.0  # HA-LC2-LC1-H1
502  1 0.155555555556 3 0.0  # HA-C3-LC1-H1
503  1 0.155555555556 3 0.0  # HA-LC2-LC1-CA
504  1 0.155555555556 3 0.0  # HA-C3-LC1-CA
505  1 0.155555555556 3 0.0  # HA-LC2-LC1-LC2
506  1 0.155555555556 3 0.0  # HA-C3-LC1-LC2
507  1 0.155555555556 3 0.0  # HA-LC2-LC1-C3
508  1 0.155555555556 3 0.0  # HA-LC2-LC1-HC
509  1 0.155555555556 3 0.0  # HA-C3-LC1-HC
510  1 0.155555555556 3 0.0  # HA-LC2-LC1-HA
511  1 0.155555555556 3 0.0  # HA-C3-LC1-HA
512  1 0.155555555556 3 0.0  # HA-LC2-LC1-LC1
513  1 0.155555555556 3 0.0  # HA-C3-LC1-LC1
514  1 0.155555555556 3 0.0  # HA-C3-LC1-C3
515  1 0.155555555556 3 0.0  # HA-LC2-LC1-S6
516  1 0.155555555556 3 0.0  # HA-C3-LC1-S6
517  1 0.155555555556 3 0.0  # HA-LC2-LC1-O
518  1 0.155555555556 3 0.0  # HA-C3-LC1-O
519  1 0.155555555556 3 0.0  # HA-LC2-LC1-OH
520  1 0.155555555556 3 0.0  # HA-C3-LC1-OH
521  1 0.155555555556 3 0.0  # HA-C3-C3-LC2
522  1 0.155555555556 3 0.0  # HA-C3-C3-LC1
523  1 0.155555555556 3 0.0  # HA-LC1-LC2-H1
524  1 0.155555555556 3 0.0  # HA-LC1-C3-H1
525  1 0.155555555556 3 0.0  # HA-LC1-LC2-CA
526  1 0.155555555556 3 0.0  # HA-LC1-C3-CA
527  1 0.155555555556 3 0.0  # HA-LC1-LC2-LC2
528  1 0.155555555556 3 0.0  # HA-LC1-C3-LC2
529  1 0.155555555556 3 0.0  # HA-LC1-LC2-C3
530  1 0.155555555556 3 0.0  # HA-LC1-LC2-HC
531  1 0.155555555556 3 0.0  # HA-LC1-C3-HC
532  1 0.155555555556 3 0.0  # HA-LC1-LC2-HA
533  1 0.155555555556 3 0.0  # HA-LC1-C3-HA
534  1 0.155555555556 3 0.0  # HA-LC1-LC2-LC1
535  1 0.155555555556 3 0.0  # HA-LC1-C3-LC1
536  1 0.155555555556 3 0.0  # HA-LC1-C3-C3
537  1 0.155555555556 3 0.0  # HA-LC1-LC2-S6
538  1 0.155555555556 3 0.0  # HA-LC1-C3-S6
539  1 0.155555555556 3 0.0  # HA-LC1-LC2-O
540  1 0.155555555556 3 0.0  # HA-LC1-C3-O
541  1 0.155555555556 3 0.0  # HA-LC1-LC2-OH
542  1 0.155555555556 3 0.0  # HA-LC1-C3-OH
543  1 0.155555555556 3 0.0  # HA-LC1-LC1-H1
544  1 0.155555555556 3 0.0  # HA-LC1-LC1-CA
545  1 0.155555555556 3 0.0  # HA-LC1-LC1-LC2
546  1 0.155555555556 3 0.0  # HA-LC1-LC1-C3
547  1 0.155555555556 3 0.0  # HA-LC1-LC1-HC